/*--------------------------------*- C++ -*----------------------------------*\
| =========                 |                                                 |
| \\      /  F ield         | OpenFOAM: The Open Source CFD Toolbox           |
|  \\    /   O peration     | Version:  5.x                                   |
|   \\  /    A nd           | Web:      www.OpenFOAM.org                      |
|    \\/     M anipulation  |                                                 |
\*---------------------------------------------------------------------------*/
FoamFile
{
    version     2.0;
    format      ascii;
    class       volScalarField;
    location    "11.5";
    object      epsilon;
}
// * * * * * * * * * * * * * * * * * * * * * * * * * * * * * * * * * * * * * //

dimensions      [0 2 -3 0 0 0 0];

internalField   nonuniform List<scalar> 
400
(
3.06944e-05
0.000101318
0.000358862
0.000673691
0.000883674
0.00105111
0.001185
0.00131444
0.0014275
0.00154316
0.00165138
0.00176555
0.00187657
0.00194433
0.00197326
0.00196397
0.00179839
0.00138124
0.000843912
0.000593022
0.000131835
0.000350861
0.000839426
0.00108192
0.00113576
0.00115644
0.0011621
0.00120071
0.00124759
0.00133514
0.00144686
0.00159476
0.00177022
0.00197612
0.00219762
0.00239713
0.00248431
0.00244819
0.00190732
0.00123535
0.000405236
0.000961408
0.00114522
0.0011617
0.00112014
0.00109907
0.00108411
0.00110681
0.00116523
0.00123872
0.00133018
0.00143631
0.00156453
0.0017214
0.001911
0.00213204
0.00230369
0.00236583
0.00215149
0.00161469
0.000852847
0.00123098
0.00122379
0.00112368
0.00103978
0.000989937
0.000975015
0.000977026
0.00100258
0.00103249
0.00107911
0.00114891
0.00125459
0.00140639
0.00162157
0.00190364
0.00219741
0.00232792
0.00226356
0.00185941
0.00115798
0.00137658
0.00119491
0.00102964
0.000914898
0.000855019
0.00081548
0.000786105
0.000767577
0.000759919
0.000766674
0.000812875
0.000903748
0.00106003
0.00130741
0.00166702
0.00212328
0.00238177
0.00241519
0.00204166
0.00131851
0.00136907
0.00111967
0.000913416
0.000795872
0.000719664
0.000652588
0.000590801
0.000537246
0.000506038
0.000495103
0.000513643
0.000591293
0.00073892
0.00099865
0.00141658
0.00201407
0.00249843
0.00262144
0.00218911
0.00134196
0.00131944
0.00101542
0.000811078
0.000691243
0.000599773
0.000512328
0.000430638
0.000361834
0.000319771
0.000302903
0.00030311
0.000360163
0.000483212
0.000723645
0.00116078
0.0018727
0.00262327
0.00286326
0.00230649
0.00132261
0.00121568
0.000919332
0.000726158
0.000606549
0.000505746
0.000407974
0.00031983
0.000250069
0.000207893
0.000189805
0.000187241
0.000223
0.000312293
0.000511073
0.000922936
0.00168981
0.00273025
0.00317005
0.00240432
0.00127334
0.00110085
0.000835748
0.000659942
0.000543138
0.000439103
0.000339393
0.0002528
0.000187907
0.000150661
0.000135308
0.000133545
0.00015778
0.000220449
0.000371395
0.000736397
0.00151982
0.00278475
0.00347153
0.00247628
0.00118185
0.000999903
0.000767884
0.000610014
0.00049886
0.000397041
0.000299649
0.000217517
0.000159005
0.00012603
0.000112782
0.000112875
0.000130948
0.000178073
0.000293976
0.000601384
0.00137563
0.00281674
0.00379725
0.00253539
0.00108402
0.000916701
0.000714538
0.000575362
0.000470928
0.000372955
0.000282536
0.000208576
0.000155522
0.000123475
0.000108332
0.000108698
0.000123285
0.000162645
0.000258961
0.000522632
0.00125266
0.00284367
0.0040923
0.00257105
0.000995846
0.00086037
0.000678742
0.00055218
0.000455343
0.000367503
0.000284504
0.000213864
0.000162663
0.000131141
0.000116056
0.000116648
0.000127552
0.000160622
0.000248281
0.000487965
0.00117918
0.00288398
0.0043608
0.00259582
0.00090374
0.000822288
0.000658324
0.000545636
0.000456563
0.000372466
0.00029446
0.000229034
0.000181082
0.000150469
0.000134845
0.000135738
0.00014613
0.000176953
0.000255574
0.000478523
0.00114931
0.00294007
0.00454363
0.00260736
0.00081347
0.00080228
0.000666918
0.000553497
0.000466846
0.000387381
0.000316722
0.000257765
0.000212796
0.000182862
0.000165565
0.000166348
0.000176618
0.000207877
0.000287243
0.00050304
0.00114699
0.00302955
0.00463356
0.00261312
0.000716092
0.000778131
0.000686896
0.000577427
0.000493057
0.000417563
0.000351173
0.000296281
0.000254086
0.000225716
0.000207786
0.000208819
0.000219981
0.00025408
0.000339736
0.000567132
0.0012168
0.00317625
0.00466444
0.00255179
0.000607856
0.000769143
0.000730211
0.000637309
0.000552518
0.000478382
0.000411878
0.000356511
0.000313108
0.000283974
0.000264539
0.0002662
0.00027999
0.000321388
0.000423165
0.000684036
0.00136402
0.00337488
0.00449571
0.00244827
0.000498017
0.000730458
0.000750682
0.000717716
0.000651152
0.000579721
0.00051079
0.000450979
0.000403478
0.000370201
0.000351828
0.000356345
0.0003784
0.000440046
0.00058364
0.000933595
0.00170101
0.00364834
0.00414022
0.00230512
0.000334344
0.000641952
0.000829085
0.0008906
0.00087163
0.000813925
0.00073662
0.000665811
0.00061201
0.00057266
0.00057198
0.000592226
0.000649379
0.000786604
0.00106946
0.00170179
0.0026489
0.00406061
0.00396846
0.00212632
0.000338298
0.000633782
0.00103506
0.00124349
0.00131612
0.00131299
0.00129021
0.00126731
0.00127806
0.00132217
0.00141916
0.00161631
0.00189122
0.00234377
0.0029436
0.00384767
0.00470182
0.00460387
0.00402334
0.00188811
0.000245253
0.000374466
0.000662398
0.000949197
0.00116302
0.00130755
0.00138542
0.00143609
0.00145781
0.00147405
0.00147886
0.00148859
0.00149724
0.00151658
0.00153405
0.00158442
0.00165455
0.00174185
0.00172436
0.00153706
)
;

boundaryField
{
    movingWall
    {
        Cmu             0.09;
        kappa           0.41;
        E               9.8;
        type            epsilonWallFunction;
        value           nonuniform List<scalar> 
20
(
0.000245253
0.000374466
0.000662398
0.000949197
0.00116302
0.00130755
0.00138542
0.00143609
0.00145781
0.00147405
0.00147886
0.00148859
0.00149724
0.00151658
0.00153405
0.00158442
0.00165455
0.00174185
0.00172436
0.00153706
)
;
    }
    fixedWalls
    {
        Cmu             0.09;
        kappa           0.41;
        E               9.8;
        type            epsilonWallFunction;
        value           nonuniform List<scalar> 
60
(
3.06944e-05
0.000131835
0.000405236
0.000852847
0.00115798
0.00131851
0.00134196
0.00132261
0.00127334
0.00118185
0.00108402
0.000995846
0.00090374
0.00081347
0.000716092
0.000607856
0.000498017
0.000334344
0.000338298
0.000245253
0.000593022
0.00123535
0.00161469
0.00185941
0.00204166
0.00218911
0.00230649
0.00240432
0.00247628
0.00253539
0.00257105
0.00259582
0.00260736
0.00261312
0.00255179
0.00244827
0.00230512
0.00212632
0.00188811
0.00153706
3.06944e-05
0.000101318
0.000358862
0.000673691
0.000883674
0.00105111
0.001185
0.00131444
0.0014275
0.00154316
0.00165138
0.00176555
0.00187657
0.00194433
0.00197326
0.00196397
0.00179839
0.00138124
0.000843912
0.000593022
)
;
    }
    frontAndBack
    {
        type            empty;
    }
}


// ************************************************************************* //
