/*--------------------------------*- C++ -*----------------------------------*\
| =========                 |                                                 |
| \\      /  F ield         | OpenFOAM: The Open Source CFD Toolbox           |
|  \\    /   O peration     | Version:  5.x                                   |
|   \\  /    A nd           | Web:      www.OpenFOAM.org                      |
|    \\/     M anipulation  |                                                 |
\*---------------------------------------------------------------------------*/
FoamFile
{
    version     2.0;
    format      ascii;
    class       volScalarField;
    location    "11.5";
    object      k;
}
// * * * * * * * * * * * * * * * * * * * * * * * * * * * * * * * * * * * * * //

dimensions      [0 2 -2 0 0 0 0];

internalField   nonuniform List<scalar> 
400
(
9.59858e-06
3.15926e-05
0.000111923
0.000210359
0.000276148
0.000328523
0.000370377
0.000410861
0.000446198
0.000482368
0.000516196
0.000551891
0.000586595
0.000607776
0.00061682
0.000613913
0.000562153
0.000431757
0.000263779
0.000185336
4.12008e-05
0.000136885
0.000277003
0.000425921
0.000491791
0.000569412
0.000614636
0.000680363
0.000734361
0.000798486
0.000859772
0.000923885
0.000981277
0.00104409
0.00109449
0.00111797
0.00112011
0.00098204
0.000645126
0.000386168
0.000126702
0.000408777
0.000548879
0.000627636
0.000679749
0.000726909
0.00076278
0.000811211
0.000854194
0.000903947
0.000950241
0.000997121
0.00104298
0.0010934
0.00114041
0.00117009
0.00117979
0.0011145
0.000796083
0.00050475
0.000266439
0.000611157
0.000685264
0.000718174
0.000742704
0.000761678
0.000785702
0.000816471
0.000846188
0.000876496
0.000903741
0.000938289
0.000983895
0.00104207
0.00111227
0.00117451
0.00120046
0.00119035
0.000940125
0.000581249
0.000361773
0.000720989
0.000741691
0.000739535
0.000742085
0.000753747
0.000765648
0.00077116
0.000768232
0.00076417
0.000767483
0.000793478
0.000841463
0.000917242
0.00102468
0.00115508
0.00123475
0.00125226
0.00106264
0.000638219
0.000411959
0.000754326
0.00075138
0.000735201
0.000729424
0.000723904
0.000703121
0.000668117
0.000633776
0.000614395
0.000607777
0.000621082
0.000669789
0.000756425
0.000892852
0.00108012
0.00125539
0.00131935
0.00119034
0.000684311
0.000419296
0.000747026
0.000744722
0.000720311
0.000698032
0.000665481
0.000618377
0.000562445
0.00051313
0.000482547
0.000470458
0.000473492
0.000516774
0.000602459
0.00074971
0.000976024
0.00125884
0.00139208
0.00131037
0.000721007
0.000413248
0.000727208
0.000727082
0.000692209
0.000658511
0.000609881
0.000546627
0.000479821
0.000424032
0.000388938
0.000374331
0.000373362
0.000407636
0.000483452
0.000622852
0.00086103
0.00121231
0.00145682
0.00144203
0.000751588
0.000397856
0.000688581
0.000696281
0.000662876
0.000623285
0.000565983
0.000495215
0.000424889
0.0003685
0.000333577
0.000319045
0.000318034
0.000344525
0.000406304
0.000530294
0.000760983
0.00114372
0.00151592
0.0015561
0.000774086
0.00036927
0.000653962
0.000666171
0.000636942
0.000596191
0.000536088
0.000463866
0.000394401
0.000340593
0.000307155
0.000292995
0.00029375
0.000315665
0.000367575
0.000473215
0.000685561
0.00107575
0.00155912
0.00167235
0.000792564
0.000338709
0.000610766
0.000634132
0.000613684
0.00057552
0.000518114
0.00044956
0.000385644
0.00033539
0.000302414
0.00028628
0.000287493
0.000306234
0.000351878
0.000446335
0.000640874
0.00102283
0.00158941
0.0017692
0.000803716
0.000311167
0.000572869
0.00060874
0.000597212
0.000563658
0.000511358
0.000450446
0.000389938
0.000341664
0.000309468
0.000293434
0.000294524
0.000308914
0.000349123
0.000437653
0.000621055
0.000991259
0.00161603
0.00185287
0.000811452
0.000282405
0.000526442
0.000581261
0.000579358
0.000557614
0.000513095
0.000457253
0.000402737
0.000358515
0.000328097
0.000312518
0.000314166
0.000327727
0.000364799
0.000445478
0.000616808
0.000977649
0.00164101
0.00189405
0.000815065
0.000254213
0.00049295
0.000565336
0.000568858
0.000556843
0.000521212
0.000473023
0.000426352
0.000387052
0.000358868
0.000343501
0.000345435
0.000358836
0.000395196
0.000473836
0.000637451
0.000976214
0.00166716
0.00190854
0.000816861
0.000223809
0.000446128
0.000541335
0.00056425
0.00055957
0.000538386
0.000497909
0.000457716
0.000423582
0.000398582
0.00038449
0.00038685
0.000400545
0.000437139
0.000515492
0.000677987
0.00100239
0.00169387
0.00190195
0.00079769
0.00019
0.000412786
0.000528391
0.000568698
0.00057154
0.000562076
0.000536612
0.000502473
0.000471739
0.000448474
0.000434283
0.000436819
0.000451041
0.000489067
0.000569937
0.000741354
0.00104882
0.00171092
0.00181235
0.00076533
0.000155693
0.000357801
0.000496446
0.000577476
0.000601177
0.0005985
0.000584628
0.000556432
0.000528521
0.0005064
0.000493664
0.000497549
0.000514747
0.000558899
0.000649348
0.000846614
0.00114853
0.00171774
0.00167708
0.000720588
0.000104537
0.000296958
0.000502738
0.000621792
0.000691911
0.000697461
0.00068916
0.000667439
0.000636542
0.000612055
0.000606756
0.000616639
0.000646054
0.000716579
0.000840858
0.00110745
0.00142246
0.00171925
0.00152233
0.000664698
0.000105747
0.000309569
0.000536294
0.000674455
0.000754522
0.000791858
0.000806723
0.000822417
0.000838507
0.000870142
0.000914925
0.000995069
0.00109803
0.00126306
0.00145671
0.00175077
0.00189574
0.00178836
0.00142541
0.000590245
7.6667e-05
0.000117049
0.000207039
0.000296679
0.000363513
0.000408703
0.00043306
0.000448917
0.000455717
0.000460807
0.000462321
0.000465372
0.000468078
0.000474131
0.000479591
0.000495336
0.000517255
0.000544539
0.000539072
0.000480517
)
;

boundaryField
{
    movingWall
    {
        type            kqRWallFunction;
        value           nonuniform List<scalar> 
20
(
7.6667e-05
0.000117049
0.000207039
0.000296679
0.000363513
0.000408703
0.00043306
0.000448917
0.000455717
0.000460807
0.000462321
0.000465372
0.000468078
0.000474131
0.000479591
0.000495336
0.000517255
0.000544539
0.000539072
0.000480517
)
;
    }
    fixedWalls
    {
        type            kqRWallFunction;
        value           nonuniform List<scalar> 
60
(
9.59858e-06
4.12008e-05
0.000126702
0.000266439
0.000361773
0.000411959
0.000419296
0.000413248
0.000397856
0.00036927
0.000338709
0.000311167
0.000282405
0.000254213
0.000223809
0.00019
0.000155693
0.000104537
0.000105747
7.6667e-05
0.000185336
0.000386168
0.00050475
0.000581249
0.000638219
0.000684311
0.000721007
0.000751588
0.000774086
0.000792564
0.000803716
0.000811452
0.000815065
0.000816861
0.00079769
0.00076533
0.000720588
0.000664698
0.000590245
0.000480517
9.59858e-06
3.15926e-05
0.000111923
0.000210359
0.000276148
0.000328523
0.000370377
0.000410861
0.000446198
0.000482368
0.000516196
0.000551891
0.000586595
0.000607776
0.00061682
0.000613913
0.000562153
0.000431757
0.000263779
0.000185336
)
;
    }
    frontAndBack
    {
        type            empty;
    }
}


// ************************************************************************* //
