/*--------------------------------*- C++ -*----------------------------------*\
| =========                 |                                                 |
| \\      /  F ield         | OpenFOAM: The Open Source CFD Toolbox           |
|  \\    /   O peration     | Version:  5.x                                   |
|   \\  /    A nd           | Web:      www.OpenFOAM.org                      |
|    \\/     M anipulation  |                                                 |
\*---------------------------------------------------------------------------*/
FoamFile
{
    version     2.0;
    format      ascii;
    class       volScalarField;
    location    "11.5";
    object      nut;
}
// * * * * * * * * * * * * * * * * * * * * * * * * * * * * * * * * * * * * * //

dimensions      [0 2 -1 0 0 0 0];

internalField   nonuniform List<scalar> 
400
(
2.70145e-07
8.866e-07
3.14161e-06
5.9116e-06
7.76666e-06
9.24117e-06
1.04186e-05
1.15583e-05
1.25523e-05
1.35702e-05
1.45219e-05
1.55263e-05
1.65027e-05
1.70986e-05
1.7353e-05
1.72712e-05
1.5815e-05
1.21465e-05
7.42039e-06
5.21305e-06
1.15884e-06
4.80638e-06
8.22678e-06
1.50906e-05
1.91654e-05
2.52333e-05
2.92573e-05
3.46965e-05
3.89035e-05
4.29784e-05
4.59813e-05
4.81707e-05
4.89551e-05
4.96482e-05
4.90579e-05
4.69257e-05
4.54526e-05
3.54532e-05
1.96385e-05
1.08644e-05
3.56535e-06
1.56426e-05
2.36758e-05
3.05185e-05
3.71252e-05
4.3269e-05
4.83024e-05
5.35102e-05
5.63566e-05
5.93684e-05
6.10943e-05
6.23002e-05
6.25763e-05
6.25056e-05
6.12502e-05
5.77946e-05
5.43782e-05
4.72519e-05
2.65107e-05
1.42006e-05
7.49146e-06
2.73086e-05
3.45344e-05
4.13103e-05
4.77457e-05
5.27445e-05
5.69832e-05
6.14071e-05
6.42772e-05
6.69663e-05
6.81186e-05
6.89651e-05
6.94447e-05
6.9491e-05
6.86635e-05
6.52188e-05
5.90233e-05
5.47805e-05
3.51416e-05
1.63528e-05
1.01722e-05
3.39859e-05
4.14337e-05
4.78052e-05
5.41723e-05
5.98023e-05
6.46975e-05
6.8085e-05
6.91998e-05
6.91601e-05
6.91464e-05
6.9709e-05
7.05124e-05
7.14318e-05
7.22787e-05
7.20324e-05
6.46238e-05
5.92561e-05
4.20786e-05
1.79556e-05
1.15842e-05
3.74056e-05
4.53808e-05
5.32581e-05
6.01671e-05
6.55352e-05
6.8181e-05
6.79996e-05
6.72885e-05
6.7136e-05
6.71484e-05
6.75895e-05
6.82835e-05
6.96911e-05
7.18436e-05
7.41216e-05
7.04253e-05
6.27038e-05
4.86458e-05
1.92523e-05
1.17908e-05
3.80648e-05
4.91569e-05
5.75731e-05
6.34398e-05
6.64548e-05
6.71739e-05
6.61135e-05
6.5492e-05
6.55366e-05
6.5763e-05
6.65682e-05
6.67337e-05
6.76021e-05
6.99042e-05
7.38609e-05
7.61577e-05
6.64854e-05
5.39721e-05
2.02848e-05
1.16207e-05
3.9151e-05
5.17532e-05
5.93863e-05
6.43432e-05
6.61912e-05
6.59161e-05
6.47862e-05
6.47113e-05
6.54884e-05
6.64428e-05
6.7004e-05
6.7063e-05
6.73578e-05
6.8317e-05
7.22948e-05
7.82764e-05
6.99603e-05
5.9037e-05
2.11451e-05
1.1188e-05
3.87634e-05
5.22079e-05
5.99241e-05
6.43733e-05
6.56572e-05
6.50321e-05
6.42711e-05
6.50391e-05
6.64714e-05
6.77056e-05
6.81649e-05
6.77068e-05
6.73963e-05
6.81461e-05
7.07751e-05
7.7462e-05
7.42689e-05
6.27765e-05
2.17782e-05
1.0384e-05
3.84937e-05
5.20137e-05
5.98553e-05
6.4126e-05
6.51447e-05
6.46272e-05
6.43614e-05
6.56605e-05
6.73725e-05
6.8505e-05
6.8802e-05
6.84851e-05
6.82868e-05
6.85563e-05
7.03369e-05
7.57117e-05
7.76699e-05
6.62868e-05
2.2298e-05
9.52488e-06
3.66239e-05
5.06497e-05
5.89102e-05
6.33007e-05
6.47795e-05
6.43787e-05
6.4173e-05
6.50955e-05
6.66603e-05
6.80874e-05
6.84342e-05
6.84601e-05
6.85151e-05
6.92357e-05
7.07282e-05
7.5165e-05
7.99531e-05
6.88385e-05
2.26119e-05
8.7506e-06
3.43296e-05
4.91362e-05
5.81324e-05
6.27964e-05
6.4037e-05
6.4186e-05
6.39877e-05
6.45879e-05
6.57256e-05
6.67725e-05
6.69283e-05
6.73335e-05
6.8296e-05
6.94319e-05
7.114e-05
7.49958e-05
8.1498e-05
7.08542e-05
2.28293e-05
7.94223e-06
3.03332e-05
4.61898e-05
5.53648e-05
6.12929e-05
6.36139e-05
6.3904e-05
6.37359e-05
6.38827e-05
6.43874e-05
6.51864e-05
6.54422e-05
6.61497e-05
6.76848e-05
6.98841e-05
7.15549e-05
7.48462e-05
8.24344e-05
7.10598e-05
2.29311e-05
7.14986e-06
2.72597e-05
4.31304e-05
5.26181e-05
5.9777e-05
6.31152e-05
6.35811e-05
6.3468e-05
6.33605e-05
6.33852e-05
6.41402e-05
6.45591e-05
6.56143e-05
6.76178e-05
7.03476e-05
7.27e-05
7.47777e-05
8.25697e-05
7.07503e-05
2.29816e-05
6.29547e-06
2.30202e-05
3.83958e-05
4.96237e-05
5.7155e-05
6.24751e-05
6.35361e-05
6.36401e-05
6.35533e-05
6.33453e-05
6.40319e-05
6.44998e-05
6.56387e-05
6.76879e-05
7.03954e-05
7.29458e-05
7.43189e-05
8.12991e-05
6.97977e-05
2.24422e-05
5.34503e-06
1.99382e-05
3.44116e-05
4.56726e-05
5.32096e-05
5.94371e-05
6.2921e-05
6.37375e-05
6.39665e-05
6.37439e-05
6.41651e-05
6.45117e-05
6.5393e-05
6.69808e-05
6.90853e-05
7.23128e-05
7.2581e-05
7.80627e-05
6.57551e-05
2.15318e-05
4.38064e-06
1.57736e-05
2.95481e-05
4.18175e-05
4.99533e-05
5.56099e-05
6.02226e-05
6.17888e-05
6.23084e-05
6.23437e-05
6.23412e-05
6.25236e-05
6.302e-05
6.3887e-05
6.50209e-05
6.90964e-05
6.97947e-05
7.27885e-05
6.11405e-05
2.02733e-05
2.94164e-06
1.23632e-05
2.74364e-05
3.90706e-05
4.94324e-05
5.37895e-05
5.80283e-05
6.02163e-05
5.95851e-05
5.88744e-05
5.79282e-05
5.77852e-05
5.78472e-05
5.87509e-05
5.9501e-05
6.48609e-05
6.87472e-05
6.55133e-05
5.2558e-05
1.87009e-05
2.97496e-06
1.36087e-05
2.50081e-05
3.29235e-05
3.89306e-05
4.29809e-05
4.53974e-05
4.80335e-05
4.95112e-05
5.1539e-05
5.30862e-05
5.51347e-05
5.73757e-05
6.12599e-05
6.48802e-05
7.16971e-05
6.87916e-05
6.25215e-05
4.54505e-05
1.66065e-05
2.15697e-06
3.29282e-06
5.82406e-06
8.34566e-06
1.02257e-05
1.14974e-05
1.21831e-05
1.26297e-05
1.28213e-05
1.29649e-05
1.30077e-05
1.30939e-05
1.31701e-05
1.33405e-05
1.34941e-05
1.39371e-05
1.45537e-05
1.53211e-05
1.51673e-05
1.35197e-05
)
;

boundaryField
{
    movingWall
    {
        type            nutkWallFunction;
        Cmu             0.09;
        kappa           0.41;
        E               9.8;
        value           uniform 0;
    }
    fixedWalls
    {
        type            nutkWallFunction;
        Cmu             0.09;
        kappa           0.41;
        E               9.8;
        value           uniform 0;
    }
    frontAndBack
    {
        type            empty;
    }
}


// ************************************************************************* //
