/*--------------------------------*- C++ -*----------------------------------*\
| =========                 |                                                 |
| \\      /  F ield         | OpenFOAM: The Open Source CFD Toolbox           |
|  \\    /   O peration     | Version:  5.x                                   |
|   \\  /    A nd           | Web:      www.OpenFOAM.org                      |
|    \\/     M anipulation  |                                                 |
\*---------------------------------------------------------------------------*/
FoamFile
{
    version     2.0;
    format      ascii;
    class       volScalarField;
    location    "11.5";
    object      p;
}
// * * * * * * * * * * * * * * * * * * * * * * * * * * * * * * * * * * * * * //

dimensions      [0 2 -2 0 0 0 0];

internalField   nonuniform List<scalar> 
400
(
-4.61337e-08
-9.37154e-05
-0.000162043
-0.000468271
-0.00138935
-0.0028801
-0.00460016
-0.00623926
-0.00756218
-0.00843559
-0.00874625
-0.00839204
-0.00736647
-0.00566202
-0.00328539
-0.000409432
0.00259226
0.00511379
0.00660079
0.00693012
0.000110327
-2.73962e-06
-0.000268107
-0.000941518
-0.00211947
-0.00369413
-0.00540112
-0.00699304
-0.00828786
-0.00915834
-0.00950284
-0.00925945
-0.00837172
-0.00680896
-0.00460658
-0.00187668
0.00107653
0.00374339
0.00556014
0.00630911
0.000274066
-8.31255e-05
-0.000758154
-0.00187212
-0.00338128
-0.00509111
-0.00679957
-0.00834063
-0.00958533
-0.010403
-0.0107223
-0.0105084
-0.00973374
-0.0083849
-0.00647486
-0.00407346
-0.0013624
0.00131906
0.00347205
0.00457205
-3.0886e-06
-0.000597386
-0.00169542
-0.0032282
-0.00500765
-0.00682599
-0.0085224
-0.0099772
-0.0110913
-0.0118036
-0.0120802
-0.0118955
-0.0112288
-0.0100788
-0.00845721
-0.0064085
-0.00403338
-0.0015375
0.000679999
0.00189588
-0.000878548
-0.00167518
-0.00307026
-0.0048415
-0.00673846
-0.00856341
-0.0101848
-0.0115189
-0.0125122
-0.0131367
-0.0133747
-0.0132136
-0.0126466
-0.0116782
-0.0103212
-0.00860628
-0.00659193
-0.00440411
-0.00233613
-0.00114421
-0.00230343
-0.00319436
-0.00469435
-0.00650957
-0.0083847
-0.0101325
-0.0116427
-0.0128569
-0.0137469
-0.0142987
-0.014505
-0.014364
-0.0138794
-0.013062
-0.0119282
-0.0105028
-0.00882592
-0.00698807
-0.00525729
-0.00411371
-0.00397046
-0.00486555
-0.00632062
-0.0080581
-0.0098305
-0.0114598
-0.0128494
-0.0139544
-0.0147578
-0.0152529
-0.0154383
-0.0153173
-0.0148987
-0.0141986
-0.0132388
-0.0120447
-0.0106536
-0.0091411
-0.00775455
-0.00672278
-0.00553834
-0.0063872
-0.00773255
-0.00934915
-0.010995
-0.0125018
-0.0137815
-0.0147961
-0.0155329
-0.0159881
-0.0161623
-0.0160602
-0.0156925
-0.0150782
-0.0142452
-0.0132244
-0.012056
-0.0108112
-0.00972486
-0.00879758
-0.00676512
-0.00755959
-0.00878598
-0.0102886
-0.0118224
-0.0132283
-0.0144242
-0.0153743
-0.0160665
-0.016497
-0.0166664
-0.0165791
-0.0162459
-0.0156876
-0.0149375
-0.0140359
-0.0130299
-0.0119748
-0.0111126
-0.0102729
-0.00754996
-0.00826455
-0.00939876
-0.0108245
-0.01228
-0.0136208
-0.0147677
-0.0156829
-0.0163524
-0.0167714
-0.0169396
-0.0168606
-0.0165449
-0.0160144
-0.0153066
-0.0144724
-0.0135725
-0.0126253
-0.0119395
-0.0111004
-0.00784651
-0.00847964
-0.00955911
-0.0109395
-0.0123557
-0.0136718
-0.014806
-0.0157162
-0.0163845
-0.0168041
-0.0169734
-0.0168953
-0.0165801
-0.0160503
-0.0153478
-0.0145311
-0.013681
-0.0127509
-0.0122359
-0.0112626
-0.00764935
-0.00823584
-0.0092812
-0.0106423
-0.0120546
-0.013381
-0.0145359
-0.0154698
-0.0161584
-0.0165911
-0.0167644
-0.0166798
-0.0163481
-0.015793
-0.0150615
-0.0142203
-0.013349
-0.0123912
-0.0120483
-0.0107639
-0.00704297
-0.00760445
-0.00862455
-0.00996525
-0.0113951
-0.0127581
-0.0139619
-0.014946
-0.0156762
-0.0161353
-0.0163166
-0.0162198
-0.0158562
-0.0152516
-0.0144584
-0.013547
-0.0126107
-0.0116345
-0.0113126
-0.00970171
-0.00615458
-0.00668401
-0.00766095
-0.00895942
-0.0104
-0.0118149
-0.0130922
-0.0141526
-0.0149466
-0.0154479
-0.0156445
-0.015533
-0.015125
-0.0144491
-0.013564
-0.0125445
-0.0115123
-0.0104794
-0.0100594
-0.00821885
-0.00514671
-0.00560831
-0.00648213
-0.00769333
-0.00911878
-0.0105897
-0.0119595
-0.0131189
-0.0139986
-0.0145593
-0.0147825
-0.0146601
-0.014201
-0.013437
-0.012434
-0.0112694
-0.0100936
-0.00892405
-0.00835998
-0.00632884
-0.0042196
-0.00452017
-0.00516905
-0.00621883
-0.00760126
-0.00912941
-0.0106077
-0.011888
-0.0128766
-0.0135182
-0.0137863
-0.0136697
-0.0131674
-0.0123115
-0.0111714
-0.00981755
-0.0084195
-0.00698763
-0.00615178
-0.00364494
-0.00356853
-0.00354684
-0.00383496
-0.00465623
-0.00597442
-0.00755649
-0.00914908
-0.0105636
-0.0116806
-0.0124245
-0.0127573
-0.0126594
-0.01215
-0.011219
-0.00993339
-0.00833622
-0.00658895
-0.00465351
-0.00304679
0.000946129
-0.0032463
-0.00269795
-0.00253513
-0.00311185
-0.00436319
-0.00598903
-0.00769282
-0.00925242
-0.0105195
-0.0113955
-0.0118299
-0.0117927
-0.0112921
-0.0103169
-0.00889717
-0.00700015
-0.00472524
-0.00180212
0.00168163
0.00904263
-0.00319392
-0.00195145
-0.00144776
-0.00186603
-0.00306304
-0.00471157
-0.00650173
-0.00818851
-0.00959438
-0.0106029
-0.0111487
-0.0111984
-0.0107383
-0.00974371
-0.00819929
-0.00598144
-0.00294555
0.00172949
0.00866783
0.0211148
-0.00360011
-0.000730811
-1.04157e-05
-0.000581848
-0.00182828
-0.00351719
-0.00539262
-0.0071955
-0.00872683
-0.00985139
-0.010493
-0.0106083
-0.0101718
-0.00916121
-0.00754364
-0.00513302
-0.00102504
0.0060774
0.0177571
0.0341149
)
;

boundaryField
{
    movingWall
    {
        type            zeroGradient;
    }
    fixedWalls
    {
        type            zeroGradient;
    }
    frontAndBack
    {
        type            empty;
    }
}


// ************************************************************************* //
