/*--------------------------------*- C++ -*----------------------------------*\
| =========                 |                                                 |
| \\      /  F ield         | OpenFOAM: The Open Source CFD Toolbox           |
|  \\    /   O peration     | Version:  5.x                                   |
|   \\  /    A nd           | Web:      www.OpenFOAM.org                      |
|    \\/     M anipulation  |                                                 |
\*---------------------------------------------------------------------------*/
FoamFile
{
    version     2.0;
    format      ascii;
    class       surfaceScalarField;
    location    "11.5";
    object      phi;
}
// * * * * * * * * * * * * * * * * * * * * * * * * * * * * * * * * * * * * * //

dimensions      [0 3 -1 0 0 0 0];

internalField   nonuniform List<scalar> 
760
(
1.31389e-07
-1.31376e-07
-1.53268e-07
2.84658e-07
-9.98195e-07
8.44927e-07
-2.29108e-06
1.29289e-06
-3.679e-06
1.38791e-06
-4.92808e-06
1.24909e-06
-5.98587e-06
1.05779e-06
-6.82753e-06
8.41665e-07
-7.44379e-06
6.16254e-07
-7.84579e-06
4.01999e-07
-8.04252e-06
1.96738e-07
-8.02356e-06
-1.89618e-08
-7.80455e-06
-2.19014e-07
-7.37589e-06
-4.2866e-07
-6.67396e-06
-7.01925e-07
-5.67512e-06
-9.98847e-07
-4.32621e-06
-1.3489e-06
-2.6847e-06
-1.64151e-06
-9.91151e-07
-1.69355e-06
-9.91151e-07
-4.41871e-07
3.10495e-07
-1.45831e-06
1.30109e-06
-2.80158e-06
2.1882e-06
-4.04191e-06
2.53322e-06
-5.11323e-06
2.45923e-06
-6.05676e-06
2.19262e-06
-6.83443e-06
1.83546e-06
-7.4385e-06
1.44574e-06
-7.88609e-06
1.06385e-06
-8.17351e-06
6.89417e-07
-8.28557e-06
3.08797e-07
-8.22502e-06
-7.95056e-08
-7.98879e-06
-4.55248e-07
-7.5526e-06
-8.64854e-07
-6.91568e-06
-1.33885e-06
-6.03474e-06
-1.87978e-06
-4.87894e-06
-2.5047e-06
-3.39052e-06
-3.12993e-06
-1.63237e-06
-3.4517e-06
-2.62352e-06
-1.03255e-06
1.34305e-06
-2.35289e-06
2.62143e-06
-3.51963e-06
3.35494e-06
-4.50277e-06
3.51637e-06
-5.33328e-06
3.28974e-06
-6.01974e-06
2.87907e-06
-6.56277e-06
2.37849e-06
-6.95434e-06
1.83731e-06
-7.20713e-06
1.31663e-06
-7.32518e-06
8.07472e-07
-7.3291e-06
3.12713e-07
-7.22738e-06
-1.81226e-07
-7.00106e-06
-6.81567e-07
-6.63171e-06
-1.2342e-06
-6.10889e-06
-1.86167e-06
-5.40322e-06
-2.58546e-06
-4.49221e-06
-3.41571e-06
-3.32021e-06
-4.30194e-06
-1.81884e-06
-4.95308e-06
-4.44235e-06
-1.25027e-06
2.59332e-06
-2.46574e-06
3.83689e-06
-3.45763e-06
4.34684e-06
-4.24032e-06
4.29905e-06
-4.86052e-06
3.90994e-06
-5.33647e-06
3.35502e-06
-5.68188e-06
2.7239e-06
-5.92306e-06
2.07849e-06
-6.06775e-06
1.46132e-06
-6.12593e-06
8.6565e-07
-6.09977e-06
2.86549e-07
-5.98896e-06
-2.92034e-07
-5.78155e-06
-8.88977e-07
-5.47604e-06
-1.5397e-06
-5.06194e-06
-2.27577e-06
-4.51758e-06
-3.12981e-06
-3.81546e-06
-4.11782e-06
-2.90797e-06
-5.20944e-06
-1.6577e-06
-6.20335e-06
-6.10005e-06
-1.1761e-06
3.76941e-06
-2.2123e-06
4.8731e-06
-3.02546e-06
5.15999e-06
-3.64727e-06
4.92086e-06
-4.11373e-06
4.3764e-06
-4.45093e-06
3.69223e-06
-4.68542e-06
2.95838e-06
-4.84208e-06
2.23515e-06
-4.92691e-06
1.54616e-06
-4.94545e-06
8.84184e-07
-4.89825e-06
2.39355e-07
-4.78466e-06
-4.05621e-07
-4.60102e-06
-1.07262e-06
-4.34865e-06
-1.79208e-06
-4.02455e-06
-2.59986e-06
-3.61582e-06
-3.53855e-06
-3.08841e-06
-4.64523e-06
-2.38053e-06
-5.91732e-06
-1.39321e-06
-7.19067e-06
-7.49325e-06
-9.66946e-07
4.73636e-06
-1.80208e-06
5.70823e-06
-2.45271e-06
5.81063e-06
-2.93824e-06
5.40639e-06
-3.29043e-06
4.72859e-06
-3.53758e-06
3.93938e-06
-3.70679e-06
3.1276e-06
-3.8155e-06
2.34386e-06
-3.86917e-06
1.59983e-06
-3.87115e-06
8.86163e-07
-3.82147e-06
1.89679e-07
-3.7189e-06
-5.08201e-07
-3.56242e-06
-1.22909e-06
-3.35467e-06
-1.99984e-06
-3.09914e-06
-2.85539e-06
-2.79455e-06
-3.84314e-06
-2.4227e-06
-5.01708e-06
-1.91765e-06
-6.42237e-06
-1.13473e-06
-7.97358e-06
-8.62799e-06
-7.32596e-07
5.46895e-06
-1.35855e-06
6.33419e-06
-1.85084e-06
6.30291e-06
-2.2148e-06
5.77035e-06
-2.47749e-06
4.99128e-06
-2.66237e-06
4.12426e-06
-2.79002e-06
3.25524e-06
-2.87217e-06
2.426e-06
-2.91349e-06
1.64115e-06
-2.91596e-06
8.8864e-07
-2.87818e-06
1.51895e-07
-2.79779e-06
-5.88591e-07
-2.67353e-06
-1.35335e-06
-2.50843e-06
-2.16493e-06
-2.3099e-06
-3.05392e-06
-2.08357e-06
-4.06947e-06
-1.8208e-06
-5.27986e-06
-1.46901e-06
-6.77416e-06
-9.3348e-07
-8.50911e-06
-9.56147e-06
-4.81877e-07
5.95083e-06
-9.2198e-07
6.77429e-06
-1.26453e-06
6.64546e-06
-1.52002e-06
6.02584e-06
-1.70784e-06
5.1791e-06
-1.84392e-06
4.26034e-06
-1.94139e-06
3.35271e-06
-2.0073e-06
2.49191e-06
-2.04477e-06
1.67862e-06
-2.05443e-06
8.98308e-07
-2.03411e-06
1.31571e-07
-1.98104e-06
-6.41658e-07
-1.89381e-06
-1.44059e-06
-1.77516e-06
-2.28358e-06
-1.63421e-06
-3.19487e-06
-1.48184e-06
-4.22184e-06
-1.31517e-06
-5.44653e-06
-1.09094e-06
-6.99839e-06
-7.2083e-07
-8.87922e-06
-1.02823e-05
-2.60848e-07
6.21168e-06
-5.1315e-07
7.02659e-06
-7.09526e-07
6.84184e-06
-8.65271e-07
6.18159e-06
-9.85126e-07
5.29896e-06
-1.07723e-06
4.35244e-06
-1.14782e-06
3.4233e-06
-1.1997e-06
2.54379e-06
-1.23419e-06
1.7131e-06
-1.25111e-06
9.15223e-07
-1.24865e-06
1.29118e-07
-1.22452e-06
-6.65796e-07
-1.17753e-06
-1.48757e-06
-1.11e-06
-2.35112e-06
-1.0309e-06
-3.27397e-06
-9.53432e-07
-4.29931e-06
-8.78534e-07
-5.52143e-06
-7.74751e-07
-7.10217e-06
-5.68349e-07
-9.08562e-06
-1.08506e-05
-4.45533e-08
6.25623e-06
-1.26167e-07
7.10821e-06
-1.92467e-07
6.90814e-06
-2.49344e-07
6.23846e-06
-3.00002e-07
5.34961e-06
-3.46714e-07
4.39915e-06
-3.88738e-07
3.46533e-06
-4.24685e-07
2.57974e-06
-4.53966e-07
1.74238e-06
-4.7617e-07
9.37427e-07
-4.90536e-07
1.43484e-07
-4.9594e-07
-6.60392e-07
-4.9209e-07
-1.49142e-06
-4.80864e-07
-2.36234e-06
-4.70125e-07
-3.2847e-06
-4.72341e-07
-4.29709e-06
-4.95674e-07
-5.49809e-06
-5.00785e-07
-7.09706e-06
-4.20039e-07
-9.16637e-06
-1.12707e-05
1.73036e-07
6.0832e-06
2.6131e-07
7.01993e-06
3.24663e-07
6.84479e-06
3.53314e-07
6.20981e-06
3.67241e-07
5.33569e-06
3.66852e-07
4.39954e-06
3.5649e-07
3.47569e-06
3.39835e-07
2.5964e-06
3.186e-07
1.76362e-06
2.93102e-07
9.62925e-07
2.6297e-07
1.73615e-07
2.27845e-07
-6.25266e-07
1.86952e-07
-1.45053e-06
1.38554e-07
-2.31394e-06
7.61279e-08
-3.22228e-06
-1.49766e-08
-4.20599e-06
-1.3269e-07
-5.38038e-06
-2.60053e-07
-6.9697e-06
-3.14219e-07
-9.1122e-06
-1.15849e-05
3.78965e-07
5.70423e-06
6.30123e-07
6.76878e-06
8.1857e-07
6.65634e-06
9.41621e-07
6.08676e-06
1.02616e-06
5.25115e-06
1.07853e-06
4.34717e-06
1.10566e-06
3.44856e-06
1.11295e-06
2.58911e-06
1.10304e-06
1.77353e-06
1.07618e-06
9.89789e-07
1.03077e-06
2.19023e-07
9.64895e-07
-5.59394e-07
8.7599e-07
-1.36162e-06
7.61866e-07
-2.19982e-06
6.18283e-07
-3.0787e-06
4.38465e-07
-4.02617e-06
2.05254e-07
-5.14717e-06
-6.3991e-08
-6.70045e-06
-1.78963e-07
-8.99723e-06
-1.17639e-05
5.81663e-07
5.12257e-06
9.89281e-07
6.36116e-06
1.29732e-06
6.3483e-06
1.52033e-06
5.86375e-06
1.68301e-06
5.08847e-06
1.79745e-06
4.23273e-06
1.87072e-06
3.37529e-06
1.90888e-06
2.55096e-06
1.91522e-06
1.76718e-06
1.88999e-06
1.01502e-06
1.83048e-06
2.7853e-07
1.7336e-06
-4.62511e-07
1.59513e-06
-1.22315e-06
1.41183e-06
-2.01652e-06
1.1808e-06
-2.84767e-06
8.96514e-07
-3.74188e-06
5.45432e-07
-4.79609e-06
1.87797e-07
-6.34282e-06
-1.80944e-08
-8.79134e-06
-1.1782e-05
7.53625e-07
4.36894e-06
1.31395e-06
5.80083e-06
1.74063e-06
5.92162e-06
2.07901e-06
5.52538e-06
2.3355e-06
4.83198e-06
2.52597e-06
4.04226e-06
2.6578e-06
3.24345e-06
2.73695e-06
2.4718e-06
2.76704e-06
1.7371e-06
2.74824e-06
1.03382e-06
2.67682e-06
3.49954e-07
2.54828e-06
-3.33973e-07
2.35805e-06
-1.03292e-06
2.1011e-06
-1.75958e-06
1.77478e-06
-2.52135e-06
1.38064e-06
-3.34773e-06
9.17014e-07
-4.33246e-06
4.60895e-07
-5.8867e-06
1.42614e-07
-8.47306e-06
-1.16393e-05
9.03645e-07
3.4653e-06
1.58457e-06
5.1199e-06
2.13535e-06
5.37085e-06
2.60225e-06
5.05848e-06
2.97302e-06
4.4612e-06
3.25623e-06
3.75905e-06
3.46114e-06
3.03855e-06
3.59406e-06
2.33888e-06
3.65805e-06
1.67311e-06
3.65344e-06
1.03843e-06
3.57495e-06
4.28441e-07
3.41525e-06
-1.7427e-07
3.17273e-06
-7.90399e-07
2.83936e-06
-1.42621e-06
2.41193e-06
-2.09392e-06
1.90139e-06
-2.83719e-06
1.31196e-06
-3.74303e-06
7.29776e-07
-5.30452e-06
2.91727e-07
-8.03501e-06
-1.13476e-05
9.29942e-07
2.53535e-06
1.72654e-06
4.3233e-06
2.42764e-06
4.66975e-06
3.04528e-06
4.44085e-06
3.55757e-06
3.94891e-06
3.959e-06
3.35762e-06
4.25732e-06
2.74024e-06
4.46054e-06
2.13566e-06
4.57112e-06
1.56253e-06
4.59043e-06
1.01912e-06
4.51533e-06
5.03536e-07
4.32879e-06
1.22792e-08
4.03918e-06
-5.00798e-07
3.63326e-06
-1.02029e-06
3.10636e-06
-1.56702e-06
2.47796e-06
-2.20879e-06
1.75157e-06
-3.01665e-06
1.03044e-06
-4.58339e-06
4.63632e-07
-7.4682e-06
-1.0884e-05
8.37324e-07
1.69803e-06
1.70271e-06
3.45791e-06
2.58097e-06
3.79148e-06
3.37502e-06
3.6468e-06
4.04812e-06
3.27581e-06
4.59106e-06
2.81468e-06
5.0045e-06
2.3268e-06
5.29536e-06
1.8448e-06
5.46618e-06
1.39171e-06
5.5189e-06
9.6639e-07
5.45048e-06
5.71959e-07
5.2707e-06
1.92059e-07
4.94853e-06
-1.78625e-07
4.49737e-06
-5.69132e-07
3.89832e-06
-9.67972e-07
3.17753e-06
-1.48799e-06
2.32773e-06
-2.16685e-06
1.46056e-06
-3.71622e-06
6.84379e-07
-6.69203e-06
-1.01996e-05
3.98631e-07
1.2994e-06
1.4029e-06
2.45365e-06
2.46347e-06
2.73091e-06
3.45737e-06
2.6529e-06
4.31282e-06
2.42036e-06
5.01967e-06
2.10783e-06
5.57475e-06
1.77171e-06
5.97965e-06
1.4399e-06
6.24064e-06
1.13072e-06
6.36368e-06
8.43348e-07
6.35137e-06
5.8427e-07
6.21095e-06
3.32484e-07
5.93594e-06
9.6387e-08
5.52032e-06
-1.53519e-07
4.93692e-06
-3.84569e-07
4.22487e-06
-7.75938e-07
3.33295e-06
-1.27493e-06
2.35726e-06
-2.74053e-06
1.16493e-06
-5.49969e-06
-9.03468e-06
-5.21902e-07
1.8213e-06
6.32011e-07
1.29973e-06
2.04417e-06
1.31875e-06
3.32549e-06
1.37158e-06
4.42747e-06
1.31839e-06
5.35502e-06
1.18027e-06
6.10905e-06
1.01768e-06
6.6888e-06
8.60147e-07
7.10873e-06
7.10795e-07
7.37673e-06
5.75349e-07
7.51015e-06
4.50845e-07
7.50938e-06
3.33256e-07
7.38063e-06
2.25139e-07
7.11862e-06
1.08486e-07
6.72687e-06
7.17838e-09
6.1973e-06
-2.46364e-07
5.47127e-06
-5.48905e-07
4.50745e-06
-1.77671e-06
2.52216e-06
-3.5144e-06
-6.51252e-06
1.8213e-06
3.12103e-06
4.43978e-06
5.81136e-06
7.12975e-06
8.31002e-06
9.3277e-06
1.01878e-05
1.08986e-05
1.1474e-05
1.19248e-05
1.22581e-05
1.24832e-05
1.25917e-05
1.25989e-05
1.23525e-05
1.18036e-05
1.00269e-05
6.51252e-06
)
;

boundaryField
{
    movingWall
    {
        type            calculated;
        value           uniform 0;
    }
    fixedWalls
    {
        type            calculated;
        value           uniform 0;
    }
    frontAndBack
    {
        type            empty;
        value           nonuniform 0();
    }
}


// ************************************************************************* //
