/*--------------------------------*- C++ -*----------------------------------*\
| =========                 |                                                 |
| \\      /  F ield         | OpenFOAM: The Open Source CFD Toolbox           |
|  \\    /   O peration     | Version:  5.x                                   |
|   \\  /    A nd           | Web:      www.OpenFOAM.org                      |
|    \\/     M anipulation  |                                                 |
\*---------------------------------------------------------------------------*/
FoamFile
{
    version     2.0;
    format      ascii;
    class       volVectorField;
    location    "11.5";
    object      U;
}
// * * * * * * * * * * * * * * * * * * * * * * * * * * * * * * * * * * * * * //

dimensions      [0 1 -1 0 0 0 0];

internalField   nonuniform List<vector> 
400
(
(0.00286892 -0.00370987 0)
(0.00152716 -0.000466771 0)
(-0.00622191 0.00500509 0)
(-0.029756 0.011263 0)
(-0.0633227 0.0137791 0)
(-0.0896201 0.0121272 0)
(-0.113171 0.0103186 0)
(-0.130888 0.00801694 0)
(-0.145027 0.00589362 0)
(-0.154517 0.00357307 0)
(-0.159976 0.00161254 0)
(-0.161929 -0.000493276 0)
(-0.15969 -0.00390031 0)
(-0.152292 -0.00615755 0)
(-0.139937 -0.00956769 0)
(-0.121383 -0.0123678 0)
(-0.0972497 -0.0156427 0)
(-0.0680175 -0.0170237 0)
(-0.0367577 -0.0145809 0)
(-0.00904219 -0.0024794 0)
(-0.00260989 -0.00096226 0)
(-0.0143256 0.0137344 0)
(-0.0405452 0.0317851 0)
(-0.0696942 0.0398479 0)
(-0.0941817 0.0388812 0)
(-0.114412 0.0348711 0)
(-0.131399 0.0294423 0)
(-0.144123 0.0236436 0)
(-0.154692 0.0169923 0)
(-0.16179 0.0109142 0)
(-0.165823 0.00496031 0)
(-0.166239 -0.00095272 0)
(-0.163044 -0.00743297 0)
(-0.156108 -0.0145425 0)
(-0.144908 -0.0230542 0)
(-0.128738 -0.0327102 0)
(-0.107626 -0.0434547 0)
(-0.0815846 -0.0525621 0)
(-0.0507238 -0.0535864 0)
(-0.0183583 -0.0326413 0)
(-0.00929925 0.0161724 0)
(-0.0328653 0.0416098 0)
(-0.0593674 0.0567697 0)
(-0.0822903 0.060653 0)
(-0.100363 0.0571152 0)
(-0.115328 0.0499728 0)
(-0.127242 0.041151 0)
(-0.136391 0.0317338 0)
(-0.142806 0.0230568 0)
(-0.146057 0.0143672 0)
(-0.147263 0.00569178 0)
(-0.146162 -0.00310751 0)
(-0.143048 -0.0122339 0)
(-0.136884 -0.0221862 0)
(-0.127791 -0.0335811 0)
(-0.114999 -0.0468314 0)
(-0.098155 -0.0622008 0)
(-0.0770071 -0.078483 0)
(-0.0503331 -0.0891749 0)
(-0.021127 -0.0755238 0)
(-0.01328 0.0400283 0)
(-0.0383731 0.0651715 0)
(-0.0613971 0.0770645 0)
(-0.0791552 0.0778555 0)
(-0.0926568 0.071715 0)
(-0.103348 0.062089 0)
(-0.111209 0.0507974 0)
(-0.116912 0.0390421 0)
(-0.120513 0.0276179 0)
(-0.122463 0.0164661 0)
(-0.122772 0.00569808 0)
(-0.121378 -0.00512871 0)
(-0.118188 -0.0163984 0)
(-0.112983 -0.0286938 0)
(-0.105714 -0.0426203 0)
(-0.0959754 -0.0587481 0)
(-0.0830546 -0.0773032 0)
(-0.066225 -0.0975017 0)
(-0.0439224 -0.114659 0)
(-0.0194134 -0.110261 0)
(-0.0134197 0.0624365 0)
(-0.0362127 0.0864235 0)
(-0.0548034 0.0945123 0)
(-0.0687311 0.0919521 0)
(-0.0790194 0.0828729 0)
(-0.0866899 0.07061 0)
(-0.0920382 0.0569737 0)
(-0.0957997 0.0432457 0)
(-0.0981002 0.0300698 0)
(-0.0991134 0.017417 0)
(-0.0988042 0.00514125 0)
(-0.0971755 -0.00716378 0)
(-0.0941733 -0.0199213 0)
(-0.0897635 -0.0337711 0)
(-0.0839458 -0.0494261 0)
(-0.0765983 -0.0676786 0)
(-0.0670768 -0.0891238 0)
(-0.0541606 -0.113442 0)
(-0.0359277 -0.136696 0)
(-0.0169065 -0.139657 0)
(-0.0114589 0.0832668 0)
(-0.0301596 0.104948 0)
(-0.0447568 0.109242 0)
(-0.0556801 0.103188 0)
(-0.0634604 0.0911558 0)
(-0.0690561 0.0764769 0)
(-0.0729057 0.0609965 0)
(-0.0755881 0.0458731 0)
(-0.0771478 0.03148 0)
(-0.0776784 0.0176642 0)
(-0.0771828 0.00419723 0)
(-0.0756435 -0.0092829 0)
(-0.0730237 -0.023205 0)
(-0.0693372 -0.0381558 0)
(-0.0646528 -0.0548649 0)
(-0.0590058 -0.0742507 0)
(-0.0521134 -0.0973031 0)
(-0.0428114 -0.124506 0)
(-0.0305386 -0.153692 0)
(-0.0108406 -0.163666 0)
(-0.00938187 0.100705 0)
(-0.0228214 0.119915 0)
(-0.0339695 0.120981 0)
(-0.0421537 0.111809 0)
(-0.0478759 0.0973105 0)
(-0.0519876 0.0807499 0)
(-0.0548615 0.0639194 0)
(-0.05688 0.0477527 0)
(-0.0580657 0.0324113 0)
(-0.0584861 0.0176883 0)
(-0.0581235 0.00329442 0)
(-0.0569293 -0.0111509 0)
(-0.0548514 -0.026058 0)
(-0.0519124 -0.0419217 0)
(-0.0482185 -0.0594163 0)
(-0.0438869 -0.0795281 0)
(-0.0389095 -0.103496 0)
(-0.032202 -0.132789 0)
(-0.0248923 -0.166114 0)
(-0.00817722 -0.183781 0)
(-0.00646929 0.113935 0)
(-0.0153452 0.131183 0)
(-0.0234111 0.129707 0)
(-0.0290635 0.118174 0)
(-0.033036 0.10188 0)
(-0.0359627 0.0839758 0)
(-0.038099 0.0661663 0)
(-0.0396642 0.0492208 0)
(-0.0406608 0.0331857 0)
(-0.0411225 0.0177984 0)
(-0.0410123 0.00270193 0)
(-0.0402649 -0.0125003 0)
(-0.0388224 -0.0281938 0)
(-0.0367091 -0.044782 0)
(-0.0340487 -0.0628227 0)
(-0.0310093 -0.083301 0)
(-0.0277511 -0.107708 0)
(-0.0233095 -0.138335 0)
(-0.0203132 -0.174702 0)
(-0.004286 -0.19963 0)
(-0.00409352 0.122104 0)
(-0.00838511 0.13839 0)
(-0.0134007 0.135298 0)
(-0.0166876 0.122402 0)
(-0.0190761 0.105011 0)
(-0.0209507 0.0862845 0)
(-0.0224248 0.0678576 0)
(-0.0235908 0.0504014 0)
(-0.0244255 0.0339088 0)
(-0.0249324 0.0180709 0)
(-0.0250723 0.00248239 0)
(-0.024787 -0.0132671 0)
(-0.0240299 -0.0295389 0)
(-0.0228134 -0.0466601 0)
(-0.0212728 -0.0650466 0)
(-0.0196055 -0.085629 0)
(-0.0181351 -0.110174 0)
(-0.0155225 -0.141623 0)
(-0.016586 -0.18027 0)
(-0.00211995 -0.212394 0)
(-0.000771071 0.125817 0)
(-0.00181821 0.142348 0)
(-0.00397789 0.138252 0)
(-0.00496758 0.124703 0)
(-0.00584765 0.106843 0)
(-0.00668283 0.0877457 0)
(-0.00746638 0.0690223 0)
(-0.00819761 0.0513023 0)
(-0.00882465 0.0345648 0)
(-0.00932989 0.018481 0)
(-0.00968445 0.00262046 0)
(-0.00985402 -0.0134369 0)
(-0.00981859 -0.0300373 0)
(-0.009586 -0.0474473 0)
(-0.00928121 -0.0659485 0)
(-0.00909546 -0.0863696 0)
(-0.00966196 -0.110707 0)
(-0.00855136 -0.142531 0)
(-0.0135548 -0.182898 0)
(0.000787525 -0.221922 0)
(0.00164516 0.124456 0)
(0.00423205 0.142397 0)
(0.00519764 0.138244 0)
(0.00632905 0.124915 0)
(0.00693522 0.107177 0)
(0.0071911 0.0882128 0)
(0.0071703 0.0695588 0)
(0.0069472 0.0518474 0)
(0.00659486 0.0350918 0)
(0.00614297 0.0189814 0)
(0.00560716 0.00308886 0)
(0.00499292 -0.0130085 0)
(0.00428434 -0.0296472 0)
(0.00347263 -0.0470649 0)
(0.00241756 -0.0654342 0)
(0.00101033 -0.0854475 0)
(-0.00176293 -0.109266 0)
(-0.00203637 -0.141051 0)
(-0.0111651 -0.183378 0)
(0.00302899 -0.228854 0)
(0.00371123 0.119883 0)
(0.0101882 0.139304 0)
(0.0137768 0.136127 0)
(0.0171876 0.123767 0)
(0.0194514 0.106399 0)
(0.0209334 0.0878417 0)
(0.021815 0.0695005 0)
(0.0222133 0.0520222 0)
(0.0222205 0.0354633 0)
(0.021877 0.0195515 0)
(0.0211867 0.00388183 0)
(0.0201316 -0.011964 0)
(0.0186527 -0.0283219 0)
(0.0167463 -0.045424 0)
(0.0142185 -0.0633733 0)
(0.0110684 -0.0827399 0)
(0.00609028 -0.105699 0)
(0.00431756 -0.137113 0)
(-0.00908105 -0.181619 0)
(0.00636088 -0.233043 0)
(0.00607434 0.11076 0)
(0.0157911 0.132656 0)
(0.022307 0.130747 0)
(0.0277196 0.120131 0)
(0.0318542 0.10383 0)
(0.0347242 0.0861367 0)
(0.0366839 0.0685049 0)
(0.0378628 0.0516013 0)
(0.0383532 0.0355454 0)
(0.0382013 0.0201248 0)
(0.0373988 0.00498254 0)
(0.0359164 -0.010278 0)
(0.0336389 -0.0259838 0)
(0.0305807 -0.0423903 0)
(0.0264292 -0.0595767 0)
(0.0214778 -0.0780517 0)
(0.0142725 -0.0998519 0)
(0.0105322 -0.13091 0)
(-0.0070192 -0.178042 0)
(0.0101533 -0.235246 0)
(0.00794343 0.0977756 0)
(0.0208587 0.123757 0)
(0.0301575 0.124132 0)
(0.0377647 0.115034 0)
(0.0439628 0.100136 0)
(0.0485349 0.0834895 0)
(0.0518539 0.0667741 0)
(0.054051 0.050679 0)
(0.0552072 0.0353759 0)
(0.0553752 0.0207175 0)
(0.0545295 0.00640963 0)
(0.0526435 -0.00791744 0)
(0.0495265 -0.0225789 0)
(0.0452689 -0.0378674 0)
(0.0393527 -0.0539011 0)
(0.0325212 -0.0711964 0)
(0.0227927 -0.0917029 0)
(0.0169949 -0.122818 0)
(-0.00446405 -0.173036 0)
(0.0151022 -0.235801 0)
(0.00988353 0.0811957 0)
(0.0252076 0.110574 0)
(0.0370269 0.113679 0)
(0.0470268 0.106484 0)
(0.0555112 0.0935842 0)
(0.0621671 0.0785966 0)
(0.0671817 0.0633309 0)
(0.07069 0.0485484 0)
(0.0727469 0.0344748 0)
(0.0734202 0.0210272 0)
(0.0726515 0.00799087 0)
(0.0704269 -0.00496167 0)
(0.0664512 -0.0181036 0)
(0.0609913 -0.0317837 0)
(0.0531868 -0.0461822 0)
(0.0443876 -0.0620053 0)
(0.0317962 -0.0811277 0)
(0.0239863 -0.112522 0)
(-0.00190658 -0.16641 0)
(0.0207044 -0.235723 0)
(0.0100875 0.0613946 0)
(0.0278518 0.0964559 0)
(0.0418386 0.102609 0)
(0.0543568 0.0971101 0)
(0.0656211 0.0860318 0)
(0.0749524 0.072807 0)
(0.0821609 0.0591349 0)
(0.0873542 0.0458498 0)
(0.0906058 0.0332464 0)
(0.092019 0.02128 0)
(0.0915072 0.00984427 0)
(0.0890977 -0.00144609 0)
(0.0843298 -0.0126125 0)
(0.0778056 -0.0241873 0)
(0.0680891 -0.0364191 0)
(0.0574267 -0.0504124 0)
(0.041772 -0.0678776 0)
(0.0319849 -0.0997948 0)
(0.000623752 -0.158159 0)
(0.0276452 -0.23273 0)
(0.00951387 0.0413899 0)
(0.0272657 0.0766868 0)
(0.0435283 0.0849787 0)
(0.059067 0.0817153 0)
(0.0735438 0.0731399 0)
(0.0860549 0.0625511 0)
(0.09594 0.0513954 0)
(0.103222 0.0404491 0)
(0.10795 0.0301248 0)
(0.110371 0.0203813 0)
(0.110218 0.0112141 0)
(0.107972 0.00224182 0)
(0.102771 -0.00645925 0)
(0.095741 -0.015484 0)
(0.0845214 -0.0249609 0)
(0.0726837 -0.0366645 0)
(0.0541269 -0.051882 0)
(0.0423432 -0.0844399 0)
(0.00495681 -0.146464 0)
(0.0371269 -0.221978 0)
(-0.000328192 0.025101 0)
(0.0205696 0.0610841 0)
(0.0391 0.0690787 0)
(0.0584127 0.0671018 0)
(0.0768637 0.060612 0)
(0.0928862 0.0524747 0)
(0.105881 0.0438086 0)
(0.115788 0.0351773 0)
(0.122519 0.0270919 0)
(0.12665 0.019565 0)
(0.127625 0.0126957 0)
(0.126507 0.00618035 0)
(0.121834 0.000102327 0)
(0.115884 -0.00629849 0)
(0.104656 -0.012729 0)
(0.0936777 -0.0215959 0)
(0.073273 -0.0339114 0)
(0.0607236 -0.0654678 0)
(0.0183413 -0.126639 0)
(0.0538835 -0.193471 0)
(-0.013738 0.0290477 0)
(-0.000254596 0.0310519 0)
(0.0269943 0.0348706 0)
(0.0532356 0.0358857 0)
(0.0768333 0.0340053 0)
(0.0974322 0.0300354 0)
(0.114446 0.0255129 0)
(0.128191 0.0209812 0)
(0.138207 0.0167284 0)
(0.145488 0.0127136 0)
(0.149251 0.00918036 0)
(0.151024 0.00562934 0)
(0.149123 0.00267446 0)
(0.146023 -0.0011677 0)
(0.137685 -0.0042596 0)
(0.130299 -0.0104603 0)
(0.111816 -0.018628 0)
(0.102462 -0.0452167 0)
(0.0599346 -0.0917659 0)
(0.0873272 -0.139521 0)
(0.04278 0.0376392 0)
(0.0483898 0.0293803 0)
(0.070441 0.0269237 0)
(0.100981 0.0267865 0)
(0.128167 0.0258452 0)
(0.153241 0.0238442 0)
(0.175125 0.0212514 0)
(0.19464 0.0187713 0)
(0.210431 0.0163178 0)
(0.224046 0.0142374 0)
(0.23404 0.0121893 0)
(0.242425 0.0105346 0)
(0.247429 0.0087263 0)
(0.251208 0.00727434 0)
(0.251608 0.005288 0)
(0.248778 0.00249306 0)
(0.239126 0.00253691 0)
(0.22399 -0.00896995 0)
(0.175679 -0.0120836 0)
(0.159067 -0.0585018 0)
)
;

boundaryField
{
    movingWall
    {
        type            fixedValue;
        value           uniform (1 0 0);
    }
    fixedWalls
    {
        type            noSlip;
    }
    frontAndBack
    {
        type            empty;
    }
}


// ************************************************************************* //
