/*--------------------------------*- C++ -*----------------------------------*\
| =========                 |                                                 |
| \\      /  F ield         | OpenFOAM: The Open Source CFD Toolbox           |
|  \\    /   O peration     | Version:  5.x                                   |
|   \\  /    A nd           | Web:      www.OpenFOAM.org                      |
|    \\/     M anipulation  |                                                 |
\*---------------------------------------------------------------------------*/
FoamFile
{
    version     2.0;
    format      ascii;
    class       volScalarField;
    location    "16";
    object      epsilon;
}
// * * * * * * * * * * * * * * * * * * * * * * * * * * * * * * * * * * * * * //

dimensions      [0 2 -3 0 0 0 0];

internalField   nonuniform List<scalar> 
400
(
3.07133e-05
9.6807e-05
0.000357481
0.000694041
0.000917521
0.00109039
0.00122933
0.00136272
0.00147909
0.00159787
0.00170858
0.00182531
0.0019377
0.00200536
0.00203394
0.00202078
0.00184979
0.00141853
0.000870403
0.00061183
0.000131932
0.000348731
0.000857584
0.00112135
0.00117758
0.00119817
0.00120323
0.00123997
0.00128713
0.00137526
0.00148913
0.00164037
0.00181996
0.00203035
0.00225562
0.00245723
0.00254507
0.00250429
0.00195598
0.00127532
0.000409937
0.00097528
0.00118184
0.0012037
0.00116115
0.00113722
0.00111965
0.00113874
0.00119801
0.00127315
0.0013673
0.00147802
0.00161113
0.00177337
0.00196772
0.00219243
0.00236412
0.00242524
0.00220531
0.00166656
0.000858645
0.00125796
0.00126494
0.00116496
0.00107738
0.00102247
0.00100522
0.0010048
0.00103122
0.00106279
0.00111304
0.00118653
0.00129627
0.00145231
0.00167121
0.00195626
0.00225234
0.00238396
0.00231686
0.0019188
0.00117604
0.00141098
0.00123654
0.00106873
0.00094858
0.000884363
0.000842777
0.000812502
0.000795349
0.000788486
0.000798652
0.000847358
0.000941807
0.00110166
0.00135226
0.00171376
0.00216986
0.00243056
0.00246516
0.00210736
0.00134726
0.00140505
0.0011613
0.000949583
0.000826814
0.000747061
0.000678451
0.000616112
0.000563056
0.000532798
0.000522627
0.000543929
0.000624467
0.000776312
0.00104056
0.00146169
0.00205825
0.00254236
0.00266743
0.00225956
0.00137592
0.00135635
0.00105479
0.000844651
0.000720076
0.000625568
0.000536684
0.000454001
0.000384497
0.000341937
0.000324956
0.00032653
0.000386153
0.000513803
0.000760789
0.00120437
0.00191779
0.00266544
0.00290647
0.0023814
0.00135671
0.0012528
0.000955571
0.000757079
0.000633328
0.000529941
0.000430604
0.000340756
0.000269144
0.000225192
0.000206259
0.000203598
0.000241122
0.000335427
0.000542208
0.000964438
0.00173761
0.00277373
0.0032121
0.00248271
0.00130744
0.00113567
0.000868631
0.000688279
0.000568056
0.000461783
0.000360317
0.000271637
0.00020432
0.000164674
0.000148043
0.000145914
0.000171182
0.000237449
0.00039653
0.000774623
0.00156962
0.00283268
0.00351528
0.00255764
0.00121383
0.00103186
0.000797339
0.000635657
0.000521692
0.000418198
0.000319509
0.000235236
0.000174098
0.000138598
0.000123926
0.000123561
0.000142242
0.000191992
0.000314791
0.000636666
0.0014278
0.00287081
0.003844
0.00261868
0.00111353
0.000946235
0.000741264
0.000598768
0.000492364
0.000393251
0.000301253
0.000225516
0.000170192
0.000135905
0.000119209
0.000119073
0.000133993
0.000175345
0.000277644
0.000555369
0.00130685
0.00290509
0.00414509
0.00265584
0.0010231
0.000888161
0.00070315
0.000573618
0.000474758
0.000386129
0.000302833
0.000230741
0.000177534
0.000143997
0.00012732
0.000127486
0.000138418
0.000173078
0.00026621
0.000519455
0.00123478
0.00295318
0.00442031
0.0026805
0.000928419
0.000848421
0.000682061
0.000566099
0.000475621
0.000390806
0.000312368
0.000245894
0.000196395
0.000164117
0.000146749
0.000147229
0.000157565
0.000189704
0.000273258
0.000509616
0.00120579
0.00301664
0.00461354
0.00269183
0.000835943
0.000827219
0.00069087
0.000574268
0.000485899
0.000405681
0.000334171
0.0002744
0.000228166
0.000196861
0.000177782
0.000178197
0.000188495
0.000221212
0.000305628
0.000534522
0.00120407
0.00311135
0.00471002
0.00269729
0.000735981
0.000802244
0.00071111
0.000599254
0.000513034
0.000436555
0.000369013
0.000312965
0.000269366
0.000239696
0.000219974
0.000220721
0.000232119
0.000268034
0.000359196
0.00059989
0.0012745
0.00326034
0.00474501
0.00263352
0.000625625
0.000792042
0.000754465
0.000662077
0.000575396
0.000499638
0.00043175
0.000374696
0.00032936
0.000298625
0.000277261
0.000278728
0.000293021
0.000336699
0.000444565
0.000718976
0.00142262
0.00345756
0.00458334
0.0025265
0.000513536
0.000750225
0.000774966
0.000743514
0.000677924
0.000605417
0.000534985
0.000473281
0.000423501
0.000388348
0.000367919
0.000372317
0.000395149
0.000459638
0.000610061
0.000973879
0.00176239
0.00372823
0.00422401
0.0023806
0.000347288
0.000657224
0.000854522
0.000921084
0.000904335
0.000848507
0.000769922
0.000697225
0.000641077
0.000599943
0.00059779
0.000618443
0.000677385
0.000818966
0.00110988
0.00175669
0.00271369
0.00413717
0.00404972
0.00219664
0.000350908
0.000648274
0.00106185
0.00127946
0.00135818
0.00135741
0.00133768
0.00131502
0.00132546
0.00136949
0.00146689
0.00166541
0.00194343
0.00239971
0.00300427
0.00391027
0.00476313
0.0046781
0.00410533
0.00195594
0.000255059
0.000387688
0.000683444
0.000979394
0.00119987
0.00135204
0.00143472
0.00148964
0.00151361
0.00153178
0.00153755
0.00154818
0.00155725
0.00157731
0.00159536
0.00164775
0.00171946
0.00180935
0.00179129
0.00159768
)
;

boundaryField
{
    movingWall
    {
        Cmu             0.09;
        kappa           0.41;
        E               9.8;
        type            epsilonWallFunction;
        value           nonuniform List<scalar> 
20
(
0.000255059
0.000387688
0.000683444
0.000979394
0.00119987
0.00135204
0.00143472
0.00148964
0.00151361
0.00153178
0.00153755
0.00154818
0.00155725
0.00157731
0.00159536
0.00164775
0.00171946
0.00180935
0.00179129
0.00159768
)
;
    }
    fixedWalls
    {
        Cmu             0.09;
        kappa           0.41;
        E               9.8;
        type            epsilonWallFunction;
        value           nonuniform List<scalar> 
60
(
3.07133e-05
0.000131932
0.000409937
0.000858645
0.00117604
0.00134726
0.00137592
0.00135671
0.00130744
0.00121383
0.00111353
0.0010231
0.000928419
0.000835943
0.000735981
0.000625625
0.000513536
0.000347288
0.000350908
0.000255059
0.00061183
0.00127532
0.00166656
0.0019188
0.00210736
0.00225956
0.0023814
0.00248271
0.00255764
0.00261868
0.00265584
0.0026805
0.00269183
0.00269729
0.00263352
0.0025265
0.0023806
0.00219664
0.00195594
0.00159768
3.07133e-05
9.6807e-05
0.000357481
0.000694041
0.000917521
0.00109039
0.00122933
0.00136272
0.00147909
0.00159787
0.00170858
0.00182531
0.0019377
0.00200536
0.00203394
0.00202078
0.00184979
0.00141853
0.000870403
0.00061183
)
;
    }
    frontAndBack
    {
        type            empty;
    }
}


// ************************************************************************* //
