/*--------------------------------*- C++ -*----------------------------------*\
| =========                 |                                                 |
| \\      /  F ield         | OpenFOAM: The Open Source CFD Toolbox           |
|  \\    /   O peration     | Version:  5.x                                   |
|   \\  /    A nd           | Web:      www.OpenFOAM.org                      |
|    \\/     M anipulation  |                                                 |
\*---------------------------------------------------------------------------*/
FoamFile
{
    version     2.0;
    format      ascii;
    class       volScalarField;
    location    "16";
    object      k;
}
// * * * * * * * * * * * * * * * * * * * * * * * * * * * * * * * * * * * * * //

dimensions      [0 2 -2 0 0 0 0];

internalField   nonuniform List<scalar> 
400
(
9.59893e-06
3.02556e-05
0.000111721
0.000216899
0.00028674
0.000340765
0.000384184
0.00042587
0.000462239
0.000499359
0.000533959
0.000570437
0.00060556
0.000626706
0.000635635
0.000631524
0.000578086
0.000443312
0.000272015
0.000191207
4.12323e-05
0.000136824
0.000281981
0.000440615
0.000509489
0.000588496
0.000635135
0.000701932
0.000757325
0.000822934
0.000885645
0.000951505
0.00101036
0.00107444
0.00112486
0.00114798
0.00114949
0.00100519
0.000662806
0.000398561
0.000128114
0.000411003
0.000564199
0.000648823
0.0007013
0.000750396
0.00078629
0.000835665
0.00087931
0.000930693
0.0009785
0.00102742
0.00107494
0.00112677
0.00117434
0.00120327
0.00121229
0.00114221
0.000816922
0.000520833
0.000268335
0.000623283
0.000706309
0.000742666
0.000767295
0.000787299
0.000810737
0.000842215
0.000872567
0.00090493
0.000934256
0.000970927
0.00101818
0.0010775
0.00114771
0.00120834
0.00123322
0.00121885
0.000961442
0.000599665
0.000367525
0.000739421
0.000764908
0.000764707
0.000767462
0.000779727
0.000791768
0.000797946
0.000797321
0.000794312
0.000800307
0.000827867
0.000877523
0.00095429
0.00106158
0.00119012
0.00126628
0.00128236
0.0010853
0.000658594
0.000421033
0.000775336
0.000775825
0.000760762
0.000755596
0.000750825
0.000730771
0.000696783
0.00066404
0.000646025
0.000640287
0.000655743
0.000705884
0.000794112
0.000931312
0.00111763
0.0012881
0.00134864
0.0012134
0.000706163
0.000429988
0.000768253
0.00076918
0.000746492
0.000725125
0.000693003
0.000646735
0.000591689
0.000543099
0.000512908
0.000501081
0.000505397
0.000550057
0.000637964
0.000787492
0.00101456
0.00129283
0.00142257
0.00133441
0.000744241
0.000423986
0.000748621
0.000751211
0.000718078
0.000685339
0.000637382
0.000574937
0.000508564
0.000452581
0.000416894
0.000402053
0.000401234
0.000436667
0.000515053
0.000658526
0.00090043
0.00125083
0.00148877
0.00146742
0.000775902
0.000408588
0.000709354
0.000719298
0.000687686
0.000649231
0.000592856
0.000522844
0.000452648
0.000395514
0.000359151
0.000343658
0.000342266
0.000369375
0.000433819
0.000562732
0.000799807
0.00118521
0.00154972
0.00158375
0.00079932
0.000379336
0.000673369
0.00068765
0.000660126
0.000620687
0.000561831
0.000490714
0.000421244
0.00036636
0.000331202
0.0003159
0.00031598
0.000338259
0.000392272
0.000502857
0.000723405
0.00111955
0.001597
0.00170197
0.000818398
0.000347992
0.000628939
0.000654045
0.000635012
0.000598307
0.000542594
0.000474591
0.000410877
0.000359878
0.000325577
0.000308297
0.000309022
0.000327994
0.000375283
0.0004745
0.000677819
0.0010684
0.00163085
0.00180162
0.000830013
0.00031973
0.000589474
0.000627206
0.000616634
0.000584625
0.000533429
0.000474555
0.000414525
0.000365705
0.000332356
0.000315098
0.000315744
0.000330197
0.00037207
0.000465216
0.00065752
0.00103839
0.0016608
0.00188844
0.00083772
0.000290142
0.000541539
0.00059862
0.000597361
0.000576845
0.000534324
0.000480077
0.000426146
0.000381703
0.000350441
0.00033368
0.000335002
0.000348677
0.000387283
0.000472449
0.000653044
0.00102541
0.00168846
0.00193158
0.00084126
0.000261242
0.000507132
0.000581912
0.000586141
0.00057492
0.000541289
0.000494086
0.000448244
0.000408943
0.000380152
0.000363717
0.000365444
0.000379153
0.000417291
0.000500662
0.000673845
0.0010239
0.00171688
0.00194718
0.000842965
0.000230004
0.000458876
0.000557341
0.000582044
0.000577829
0.000557301
0.0005178
0.000478173
0.000443969
0.000418432
0.000403389
0.000405674
0.000419928
0.000458623
0.000542057
0.000715329
0.00104808
0.00174289
0.00194313
0.000823039
0.000195517
0.00042501
0.000544206
0.000586829
0.000590836
0.000581836
0.000557071
0.000522908
0.000491671
0.000467642
0.000452479
0.000455031
0.000469995
0.000510288
0.000596154
0.00077762
0.00109335
0.0017558
0.00185212
0.000789592
0.000160491
0.000367482
0.00051165
0.000596071
0.000622435
0.000620376
0.000607083
0.000579276
0.000550502
0.000527378
0.000513484
0.000517375
0.000535295
0.000581583
0.00067649
0.00088224
0.0011932
0.00175931
0.00171647
0.000743997
0.000108537
0.000306352
0.000518621
0.000642454
0.000717609
0.000725405
0.000717251
0.00069557
0.000664146
0.000638366
0.000631838
0.00064179
0.000671961
0.000744536
0.000872149
0.0011444
0.00146047
0.0017576
0.00155728
0.000686507
0.000109666
0.000319273
0.000552951
0.000695487
0.000778728
0.000819466
0.000835623
0.000852431
0.000868478
0.00090061
0.000945578
0.00102591
0.00112977
0.00129531
0.00149072
0.00178469
0.00192798
0.00182238
0.0014572
0.000611284
7.97115e-05
0.00012116
0.000213587
0.000306076
0.00037498
0.000422534
0.000448377
0.000465541
0.000473034
0.000478715
0.000480519
0.000483845
0.000486679
0.000492951
0.000498592
0.000514968
0.000537382
0.000565475
0.000559829
0.000499321
)
;

boundaryField
{
    movingWall
    {
        type            kqRWallFunction;
        value           nonuniform List<scalar> 
20
(
7.97115e-05
0.00012116
0.000213587
0.000306076
0.00037498
0.000422534
0.000448377
0.000465541
0.000473034
0.000478715
0.000480519
0.000483845
0.000486679
0.000492951
0.000498592
0.000514968
0.000537382
0.000565475
0.000559829
0.000499321
)
;
    }
    fixedWalls
    {
        type            kqRWallFunction;
        value           nonuniform List<scalar> 
60
(
9.59893e-06
4.12323e-05
0.000128114
0.000268335
0.000367525
0.000421033
0.000429988
0.000423986
0.000408588
0.000379336
0.000347992
0.00031973
0.000290142
0.000261242
0.000230004
0.000195517
0.000160491
0.000108537
0.000109666
7.97115e-05
0.000191207
0.000398561
0.000520833
0.000599665
0.000658594
0.000706163
0.000744241
0.000775902
0.00079932
0.000818398
0.000830013
0.00083772
0.00084126
0.000842965
0.000823039
0.000789592
0.000743997
0.000686507
0.000611284
0.000499321
9.59893e-06
3.02556e-05
0.000111721
0.000216899
0.00028674
0.000340765
0.000384184
0.00042587
0.000462239
0.000499359
0.000533959
0.000570437
0.00060556
0.000626706
0.000635635
0.000631524
0.000578086
0.000443312
0.000272015
0.000191207
)
;
    }
    frontAndBack
    {
        type            empty;
    }
}


// ************************************************************************* //
