/*--------------------------------*- C++ -*----------------------------------*\
| =========                 |                                                 |
| \\      /  F ield         | OpenFOAM: The Open Source CFD Toolbox           |
|  \\    /   O peration     | Version:  5.x                                   |
|   \\  /    A nd           | Web:      www.OpenFOAM.org                      |
|    \\/     M anipulation  |                                                 |
\*---------------------------------------------------------------------------*/
FoamFile
{
    version     2.0;
    format      ascii;
    class       volScalarField;
    location    "16";
    object      nut;
}
// * * * * * * * * * * * * * * * * * * * * * * * * * * * * * * * * * * * * * //

dimensions      [0 2 -1 0 0 0 0];

internalField   nonuniform List<scalar> 
400
(
2.69999e-07
8.51036e-07
3.14237e-06
6.1006e-06
8.06496e-06
9.58448e-06
1.08057e-05
1.19782e-05
1.30011e-05
1.40452e-05
1.50183e-05
1.60443e-05
1.70322e-05
1.76269e-05
1.78781e-05
1.77624e-05
1.62594e-05
1.24688e-05
7.65082e-06
5.37799e-06
1.15976e-06
4.83146e-06
8.34459e-06
1.55819e-05
1.98391e-05
2.60141e-05
3.01736e-05
3.57619e-05
4.01038e-05
4.43189e-05
4.74056e-05
4.96733e-05
5.04815e-05
5.11727e-05
5.04862e-05
4.82683e-05
4.67257e-05
3.63125e-05
2.0214e-05
1.12102e-05
3.60346e-06
1.55885e-05
2.4241e-05
3.14759e-05
3.81206e-05
4.45633e-05
4.96966e-05
5.5193e-05
5.80854e-05
6.12315e-05
6.30233e-05
6.42777e-05
6.45483e-05
6.44334e-05
6.30769e-05
5.94354e-05
5.59483e-05
4.84149e-05
2.72354e-05
1.46493e-05
7.54717e-06
2.77938e-05
3.54945e-05
4.26106e-05
4.91812e-05
5.45595e-05
5.88495e-05
6.35342e-05
6.64492e-05
6.93464e-05
7.05773e-05
7.15051e-05
7.19773e-05
7.19478e-05
7.0938e-05
6.71725e-05
6.07696e-05
5.60842e-05
3.59078e-05
1.68667e-05
1.03369e-05
3.48743e-05
4.25847e-05
4.92453e-05
5.58833e-05
6.18725e-05
6.69463e-05
7.05285e-05
7.19367e-05
7.20163e-05
7.2177e-05
7.27941e-05
7.35865e-05
7.4397e-05
7.50052e-05
7.43834e-05
6.65079e-05
6.08912e-05
4.30031e-05
1.85242e-05
1.18419e-05
3.85062e-05
4.66471e-05
5.48538e-05
6.21461e-05
6.79147e-05
7.08413e-05
7.09215e-05
7.04821e-05
7.04982e-05
7.05992e-05
7.11488e-05
7.18125e-05
7.31088e-05
7.50183e-05
7.69104e-05
7.25508e-05
6.43867e-05
4.96772e-05
1.98622e-05
1.20938e-05
3.91632e-05
5.04817e-05
5.93766e-05
6.5719e-05
6.90937e-05
7.01417e-05
6.9402e-05
6.90409e-05
6.92429e-05
6.95396e-05
7.0402e-05
7.05178e-05
7.12917e-05
7.33618e-05
7.69195e-05
7.84377e-05
6.8332e-05
5.51387e-05
2.09333e-05
1.1925e-05
4.02608e-05
5.315e-05
6.12977e-05
6.67459e-05
6.89944e-05
6.90885e-05
6.8311e-05
6.84935e-05
6.94609e-05
7.05337e-05
7.11646e-05
7.11715e-05
7.11784e-05
7.19816e-05
7.56604e-05
8.10373e-05
7.19178e-05
6.03339e-05
2.18238e-05
1.14919e-05
3.98764e-05
5.36074e-05
6.18384e-05
6.67806e-05
6.8502e-05
6.82813e-05
6.78851e-05
6.89057e-05
7.04973e-05
7.17972e-05
7.22561e-05
7.17333e-05
7.13328e-05
7.18736e-05
7.43228e-05
8.05452e-05
7.63047e-05
6.42175e-05
2.24826e-05
1.06692e-05
3.95484e-05
5.33746e-05
6.16983e-05
6.64621e-05
6.79316e-05
6.78292e-05
6.78901e-05
6.93849e-05
7.12311e-05
7.24738e-05
7.27246e-05
7.23956e-05
7.21329e-05
7.22952e-05
7.39765e-05
7.90057e-05
7.99557e-05
6.7821e-05
2.30192e-05
9.78762e-06
3.76237e-05
5.1938e-05
6.06105e-05
6.54341e-05
6.73787e-05
6.72899e-05
6.73735e-05
6.84881e-05
7.01964e-05
7.17584e-05
7.21786e-05
7.22591e-05
7.22881e-05
7.29839e-05
7.4454e-05
7.86121e-05
8.2397e-05
7.04749e-05
2.33459e-05
8.99272e-06
3.52111e-05
5.03518e-05
5.96588e-05
6.47927e-05
6.63227e-05
6.69289e-05
6.70223e-05
6.77992e-05
6.90395e-05
7.01839e-05
7.03801e-05
7.08918e-05
7.19866e-05
7.31693e-05
7.49053e-05
7.85908e-05
8.40599e-05
7.26101e-05
2.35627e-05
8.16056e-06
3.11093e-05
4.72849e-05
5.67314e-05
6.29652e-05
6.57491e-05
6.64046e-05
6.64677e-05
6.67673e-05
6.73469e-05
6.82855e-05
6.86031e-05
6.94432e-05
7.11577e-05
7.35154e-05
7.53155e-05
7.84805e-05
8.5055e-05
7.27838e-05
2.36622e-05
7.34773e-06
2.79811e-05
4.41124e-05
5.38434e-05
6.12226e-05
6.50004e-05
6.57474e-05
6.59002e-05
6.59654e-05
6.60689e-05
6.69701e-05
6.74505e-05
6.86392e-05
7.08453e-05
7.3814e-05
7.64534e-05
7.83616e-05
8.52652e-05
7.24492e-05
2.37102e-05
6.46916e-06
2.36226e-05
3.9314e-05
5.08795e-05
5.85726e-05
6.403e-05
6.53919e-05
6.5753e-05
6.58573e-05
6.57404e-05
6.65762e-05
6.71047e-05
6.83727e-05
7.06258e-05
7.36209e-05
7.67684e-05
7.75697e-05
8.38531e-05
7.16155e-05
2.31498e-05
5.49919e-06
2.05255e-05
3.53289e-05
4.6812e-05
5.46022e-05
6.09801e-05
6.46891e-05
6.5677e-05
6.60573e-05
6.59087e-05
6.64583e-05
6.68566e-05
6.78469e-05
6.96034e-05
7.19489e-05
7.56942e-05
7.56259e-05
8.02463e-05
6.73593e-05
2.2209e-05
4.5141e-06
1.62003e-05
3.04023e-05
4.3008e-05
5.1434e-05
5.72134e-05
6.20008e-05
6.38108e-05
6.44029e-05
6.44563e-05
6.44978e-05
6.47055e-05
6.52632e-05
6.62292e-05
6.75138e-05
7.19302e-05
7.27056e-05
7.47177e-05
6.27753e-05
2.09266e-05
3.05287e-06
1.2852e-05
2.83283e-05
4.03299e-05
5.12494e-05
5.58147e-05
6.01366e-05
6.24527e-05
6.1924e-05
6.11326e-05
6.01043e-05
5.99416e-05
5.99921e-05
6.09184e-05
6.16803e-05
6.70971e-05
7.07403e-05
6.72018e-05
5.38952e-05
1.93096e-05
3.08454e-06
1.41516e-05
2.5915e-05
3.40247e-05
4.01845e-05
4.45239e-05
4.698e-05
4.97312e-05
5.12146e-05
5.33036e-05
5.48578e-05
5.6878e-05
5.91088e-05
6.29257e-05
6.65731e-05
7.33096e-05
7.02355e-05
6.38924e-05
4.65513e-05
1.71939e-05
2.24204e-06
3.40781e-06
6.00744e-06
8.60882e-06
1.05468e-05
1.18844e-05
1.26114e-05
1.30942e-05
1.33049e-05
1.34648e-05
1.35156e-05
1.36092e-05
1.36889e-05
1.38654e-05
1.40241e-05
1.44848e-05
1.51153e-05
1.59055e-05
1.57467e-05
1.40447e-05
)
;

boundaryField
{
    movingWall
    {
        type            nutkWallFunction;
        Cmu             0.09;
        kappa           0.41;
        E               9.8;
        value           uniform 0;
    }
    fixedWalls
    {
        type            nutkWallFunction;
        Cmu             0.09;
        kappa           0.41;
        E               9.8;
        value           uniform 0;
    }
    frontAndBack
    {
        type            empty;
    }
}


// ************************************************************************* //
