/*--------------------------------*- C++ -*----------------------------------*\
| =========                 |                                                 |
| \\      /  F ield         | OpenFOAM: The Open Source CFD Toolbox           |
|  \\    /   O peration     | Version:  5.x                                   |
|   \\  /    A nd           | Web:      www.OpenFOAM.org                      |
|    \\/     M anipulation  |                                                 |
\*---------------------------------------------------------------------------*/
FoamFile
{
    version     2.0;
    format      ascii;
    class       volScalarField;
    location    "16";
    object      p;
}
// * * * * * * * * * * * * * * * * * * * * * * * * * * * * * * * * * * * * * //

dimensions      [0 2 -2 0 0 0 0];

internalField   nonuniform List<scalar> 
400
(
2.73031e-09
-8.95065e-05
-0.000153377
-0.00043994
-0.00134564
-0.00282783
-0.00454424
-0.00618339
-0.00750712
-0.00837931
-0.00868581
-0.00832486
-0.00729228
-0.00558447
-0.00321194
-0.000351003
0.00262421
0.00511551
0.00658052
0.00689964
0.000103747
-4.29947e-06
-0.000255561
-0.00090934
-0.00207106
-0.00363804
-0.00534312
-0.00693763
-0.00823356
-0.0091042
-0.00944576
-0.00919595
-0.00829986
-0.00673039
-0.00452763
-0.00180756
0.00112451
0.00376342
0.0055544
0.00628418
0.000266389
-8.17556e-05
-0.000738351
-0.00183209
-0.00332673
-0.00503037
-0.00673922
-0.00828347
-0.00953129
-0.0103523
-0.0106701
-0.0104503
-0.00966622
-0.00830751
-0.00639141
-0.00399183
-0.0012929
0.00136644
0.00349183
0.00456829
3.66248e-06
-0.000580642
-0.00166086
-0.00317599
-0.00494512
-0.00676139
-0.0084626
-0.00992495
-0.0110482
-0.0117671
-0.0120439
-0.0118532
-0.0111755
-0.0100123
-0.00837902
-0.00632441
-0.00395261
-0.001471
0.000724474
0.00191797
-0.000849176
-0.00163661
-0.00301735
-0.00477745
-0.00667107
-0.00850108
-0.0101341
-0.0114824
-0.0124894
-0.0131228
-0.0133628
-0.013196
-0.012617
-0.0116327
-0.0102596
-0.00853244
-0.00651328
-0.00433054
-0.00227566
-0.00110353
-0.00225033
-0.00313551
-0.00462701
-0.0064388
-0.00831881
-0.0100797
-0.0116085
-0.0128426
-0.01375
-0.014313
-0.0145223
-0.0143758
-0.0138782
-0.013043
-0.0118901
-0.0104479
-0.00876003
-0.00691904
-0.0051917
-0.00406427
-0.00390113
-0.00479345
-0.00624605
-0.00798727
-0.00977221
-0.0114217
-0.0128357
-0.0139651
-0.0147888
-0.0152967
-0.0154857
-0.0153589
-0.0149264
-0.0142069
-0.0132257
-0.0120118
-0.0106054
-0.00908406
-0.00769373
-0.00667319
-0.00546208
-0.00630981
-0.00765741
-0.00928349
-0.0109479
-0.0124802
-0.0137886
-0.0148307
-0.0155898
-0.0160588
-0.0162368
-0.0161284
-0.0157457
-0.0151107
-0.0142545
-0.0132118
-0.012025
-0.0107678
-0.00967351
-0.00875284
-0.00668876
-0.00748309
-0.00871447
-0.0102301
-0.0117864
-0.0132211
-0.0144485
-0.015428
-0.0161435
-0.0165884
-0.0167615
-0.0166673
-0.0163182
-0.0157379
-0.0149634
-0.0140384
-0.0130121
-0.011943
-0.0110701
-0.010234
-0.00747645
-0.00819194
-0.00933138
-0.010772
-0.0122515
-0.0136226
-0.014802
-0.0157475
-0.0164408
-0.0168742
-0.017046
-0.0169595
-0.0166271
-0.0160736
-0.0153406
-0.0144827
-0.0135613
-0.0126003
-0.0119012
-0.0110652
-0.0077775
-0.00841114
-0.00949442
-0.010889
-0.0123285
-0.0136745
-0.014841
-0.0157812
-0.0164732
-0.0169071
-0.0170798
-0.0169939
-0.0166614
-0.0161081
-0.0153802
-0.0145404
-0.0136684
-0.0127266
-0.0121951
-0.0112268
-0.00758602
-0.0081709
-0.009217
-0.0105887
-0.0120218
-0.0133758
-0.0145614
-0.0155243
-0.0162359
-0.0166826
-0.016859
-0.0167666
-0.0164176
-0.0158393
-0.0150829
-0.0142195
-0.0133284
-0.0123603
-0.0119988
-0.0107222
-0.00698555
-0.00754377
-0.00856095
-0.00990468
-0.0113506
-0.0127374
-0.0139688
-0.0149798
-0.0157318
-0.0162045
-0.016389
-0.0162847
-0.0159045
-0.0152779
-0.0144614
-0.01353
-0.0125767
-0.0115909
-0.01125
-0.00964826
-0.00610638
-0.00662882
-0.00759818
-0.00889303
-0.0103416
-0.0117743
-0.0130747
-0.0141587
-0.0149729
-0.0154871
-0.0156872
-0.0155693
-0.0151464
-0.0144506
-0.013545
-0.0125087
-0.0114625
-0.0104193
-0.00998143
-0.00814958
-0.00511167
-0.00556196
-0.00642215
-0.00762397
-0.00904937
-0.0105302
-0.0119167
-0.0130955
-0.0139928
-0.0145657
-0.0147931
-0.014666
-0.0141947
-0.0134143
-0.0123946
-0.0112165
-0.010029
-0.00884809
-0.00826676
-0.00624086
-0.00419984
-0.00448523
-0.00511687
-0.00615265
-0.00752761
-0.00905712
-0.0105447
-0.011839
-0.0128423
-0.013495
-0.013768
-0.0136493
-0.0131381
-0.0122699
-0.011117
-0.00975282
-0.00834404
-0.00689794
-0.00604442
-0.00353752
-0.0035586
-0.00352397
-0.00379737
-0.004603
-0.0059076
-0.00748286
-0.00907682
-0.0104992
-0.0116268
-0.0123803
-0.0127183
-0.0126201
-0.0121057
-0.0111665
-0.00987187
-0.00826651
-0.00650871
-0.00455472
-0.002929
0.0010664
-0.00323744
-0.00268364
-0.0025153
-0.00307769
-0.00431104
-0.00592387
-0.00762299
-0.00918497
-0.0104587
-0.0113422
-0.0117819
-0.0117462
-0.0112426
-0.0102618
-0.00883524
-0.00693045
-0.00464551
-0.00170338
0.00179435
0.00914615
-0.00318353
-0.00194705
-0.00144466
-0.00185003
-0.00302642
-0.00465759
-0.00643821
-0.00812302
-0.00953231
-0.0105467
-0.0110979
-0.0111504
-0.0106896
-0.00969038
-0.00813981
-0.00591373
-0.00286865
0.00181138
0.00873217
0.0211491
-0.0035787
-0.00072087
1.39538e-06
-0.000556566
-0.00178418
-0.0034548
-0.00531824
-0.00711729
-0.00865137
-0.00978217
-0.0104304
-0.0105506
-0.0101161
-0.00910435
-0.00748249
-0.0050658
-0.000955818
0.00611806
0.0177062
0.0339769
)
;

boundaryField
{
    movingWall
    {
        type            zeroGradient;
    }
    fixedWalls
    {
        type            zeroGradient;
    }
    frontAndBack
    {
        type            empty;
    }
}


// ************************************************************************* //
