/*--------------------------------*- C++ -*----------------------------------*\
| =========                 |                                                 |
| \\      /  F ield         | OpenFOAM: The Open Source CFD Toolbox           |
|  \\    /   O peration     | Version:  5.x                                   |
|   \\  /    A nd           | Web:      www.OpenFOAM.org                      |
|    \\/     M anipulation  |                                                 |
\*---------------------------------------------------------------------------*/
FoamFile
{
    version     2.0;
    format      ascii;
    class       surfaceScalarField;
    location    "16";
    object      phi;
}
// * * * * * * * * * * * * * * * * * * * * * * * * * * * * * * * * * * * * * //

dimensions      [0 3 -1 0 0 0 0];

internalField   nonuniform List<scalar> 
760
(
1.34376e-07
-1.34376e-07
-1.41447e-07
2.75823e-07
-9.76198e-07
8.3475e-07
-2.26792e-06
1.29172e-06
-3.65939e-06
1.39148e-06
-4.90982e-06
1.25043e-06
-5.96976e-06
1.05995e-06
-6.81227e-06
8.42503e-07
-7.43057e-06
6.183e-07
-7.83136e-06
4.00791e-07
-8.02662e-06
1.95262e-07
-8.00518e-06
-2.14388e-08
-7.78251e-06
-2.22678e-07
-7.34928e-06
-4.33226e-07
-6.64391e-06
-7.05367e-07
-5.64355e-06
-1.00037e-06
-4.29745e-06
-1.3461e-06
-2.66406e-06
-1.63339e-06
-9.82495e-07
-1.68156e-06
-9.82494e-07
-4.25587e-07
2.9121e-07
-1.43153e-06
1.28176e-06
-2.7753e-06
2.17852e-06
-4.02003e-06
2.53645e-06
-5.09032e-06
2.46177e-06
-6.03703e-06
2.19714e-06
-6.81655e-06
1.83947e-06
-7.42341e-06
1.44936e-06
-7.87111e-06
1.066e-06
-8.1594e-06
6.89077e-07
-8.2711e-06
3.06963e-07
-8.20925e-06
-8.32895e-08
-7.97031e-06
-4.61613e-07
-7.53115e-06
-8.72391e-07
-6.89121e-06
-1.34531e-06
-6.00872e-06
-1.88285e-06
-4.85382e-06
-2.501e-06
-3.37092e-06
-3.11629e-06
-1.62383e-06
-3.42865e-06
-2.60632e-06
-1.01812e-06
1.30933e-06
-2.33404e-06
2.59769e-06
-3.50086e-06
3.34535e-06
-4.48278e-06
3.51836e-06
-5.315e-06
3.29398e-06
-6.00531e-06
2.88745e-06
-6.55334e-06
2.3875e-06
-6.95148e-06
1.8475e-06
-7.20865e-06
1.32317e-06
-7.33104e-06
8.11467e-07
-7.33616e-06
3.12084e-07
-7.23337e-06
-1.86087e-07
-7.00419e-06
-6.90791e-07
-6.6308e-06
-1.24578e-06
-6.10314e-06
-1.87298e-06
-5.39318e-06
-2.59281e-06
-4.47944e-06
-3.41475e-06
-3.30692e-06
-4.2888e-06
-1.80828e-06
-4.92729e-06
-4.41461e-06
-1.2431e-06
2.55243e-06
-2.45587e-06
3.81045e-06
-3.44705e-06
4.33653e-06
-4.2303e-06
4.30161e-06
-4.85535e-06
3.91904e-06
-5.33802e-06
3.37012e-06
-5.69178e-06
2.74126e-06
-5.94034e-06
2.09606e-06
-6.09147e-06
1.4743e-06
-6.15312e-06
8.73122e-07
-6.12795e-06
2.86913e-07
-6.01554e-06
-2.98496e-07
-5.80475e-06
-9.01579e-07
-5.49426e-06
-1.55627e-06
-5.07407e-06
-2.29317e-06
-4.52316e-06
-3.14372e-06
-3.81478e-06
-4.12313e-06
-2.90273e-06
-5.20085e-06
-1.65224e-06
-6.17778e-06
-6.06685e-06
-1.17416e-06
3.72659e-06
-2.20899e-06
4.84529e-06
-3.02353e-06
5.15107e-06
-3.64893e-06
4.92701e-06
-4.12234e-06
4.39246e-06
-4.46796e-06
3.71573e-06
-4.7113e-06
2.9846e-06
-4.87508e-06
2.25984e-06
-4.96559e-06
1.56481e-06
-4.98727e-06
8.94801e-07
-4.94073e-06
2.40377e-07
-4.82523e-06
-4.14e-07
-4.63766e-06
-1.08915e-06
-4.37971e-06
-1.81422e-06
-4.04888e-06
-2.62399e-06
-3.6326e-06
-3.56e-06
-3.09728e-06
-4.65844e-06
-2.38269e-06
-5.91544e-06
-1.39187e-06
-7.16859e-06
-7.45873e-06
-9.67904e-07
4.69449e-06
-1.80426e-06
5.68164e-06
-2.4577e-06
5.80452e-06
-2.94858e-06
5.41788e-06
-3.30835e-06
4.75223e-06
-3.56388e-06
3.97126e-06
-3.7412e-06
3.16191e-06
-3.85656e-06
2.3752e-06
-3.91518e-06
1.62343e-06
-3.91969e-06
8.99313e-07
-3.87004e-06
1.90731e-07
-3.7651e-06
-5.18944e-07
-3.60432e-06
-1.24992e-06
-3.39088e-06
-2.02766e-06
-3.12874e-06
-2.88614e-06
-2.81688e-06
-3.87186e-06
-2.43699e-06
-5.03833e-06
-1.92409e-06
-6.42835e-06
-1.13575e-06
-7.95693e-06
-8.59448e-06
-7.35201e-07
5.42969e-06
-1.36363e-06
6.31007e-06
-1.85963e-06
6.30052e-06
-2.22921e-06
5.78747e-06
-2.49905e-06
5.02207e-06
-2.69146e-06
4.16367e-06
-2.82613e-06
3.29658e-06
-2.91396e-06
2.46304e-06
-2.95922e-06
1.66868e-06
-2.96338e-06
9.03476e-07
-2.92503e-06
1.52375e-07
-2.84202e-06
-6.01955e-07
-2.71353e-06
-1.37841e-06
-2.54317e-06
-2.19802e-06
-2.3388e-06
-3.09051e-06
-2.10626e-06
-4.10441e-06
-1.83684e-06
-5.30774e-06
-1.4781e-06
-6.78709e-06
-9.35824e-07
-8.4992e-06
-9.5303e-06
-4.84975e-07
5.91467e-06
-9.27417e-07
6.75251e-06
-1.27366e-06
6.64676e-06
-1.53406e-06
6.04786e-06
-1.72783e-06
5.21585e-06
-1.86998e-06
4.30581e-06
-1.97295e-06
3.39956e-06
-2.04319e-06
2.53327e-06
-2.08346e-06
1.70895e-06
-2.09408e-06
9.14101e-07
-2.07295e-06
1.31239e-07
-2.01748e-06
-6.57421e-07
-1.92664e-06
-1.46925e-06
-1.8037e-06
-2.32096e-06
-1.65824e-06
-3.23596e-06
-1.50124e-06
-4.26142e-06
-1.32963e-06
-5.47935e-06
-1.09997e-06
-7.01675e-06
-7.2399e-07
-8.87519e-06
-1.02543e-05
-2.63601e-07
6.17827e-06
-5.17376e-07
7.00628e-06
-7.15912e-07
6.8453e-06
-8.751e-07
6.20705e-06
-9.99159e-07
5.33991e-06
-1.09539e-06
4.40204e-06
-1.16963e-06
3.47381e-06
-1.22433e-06
2.58797e-06
-1.26055e-06
1.74517e-06
-1.27797e-06
9.31522e-07
-1.27486e-06
1.28129e-07
-1.24898e-06
-6.83302e-07
-1.19949e-06
-1.51874e-06
-1.12918e-06
-2.39127e-06
-1.04744e-06
-3.3177e-06
-9.67413e-07
-4.34144e-06
-8.896e-07
-5.55716e-06
-7.81957e-07
-7.12439e-06
-5.70801e-07
-9.08634e-06
-1.08251e-05
-4.55058e-08
6.22377e-06
-1.27441e-07
7.08822e-06
-1.94344e-07
6.9122e-06
-2.5274e-07
6.26545e-06
-3.05174e-07
5.39234e-06
-3.53615e-07
4.45049e-06
-3.97149e-07
3.51734e-06
-4.34273e-07
2.62509e-06
-4.6431e-07
1.77521e-06
-4.86774e-07
9.53986e-07
-5.00926e-07
1.42281e-07
-5.05647e-07
-6.78581e-07
-5.00831e-07
-1.52356e-06
-4.88748e-07
-2.40336e-06
-4.77588e-07
-3.32886e-06
-4.79894e-07
-4.33914e-06
-5.02054e-07
-5.535e-06
-5.05281e-07
-7.12116e-06
-4.21702e-07
-9.16992e-06
-1.12468e-05
1.72482e-07
6.05129e-06
2.61868e-07
6.99883e-06
3.28272e-07
6.8458e-06
3.57751e-07
6.23597e-06
3.72516e-07
5.37757e-06
3.7297e-07
4.45003e-06
3.63341e-07
3.52697e-06
3.47195e-07
2.64124e-06
3.26181e-07
1.79622e-06
3.00611e-07
9.79556e-07
2.70109e-07
1.72783e-07
2.34352e-07
-6.42823e-07
1.92497e-07
-1.4817e-06
1.42607e-07
-2.35347e-06
7.79738e-08
-3.26423e-06
-1.51801e-08
-4.24599e-06
-1.3506e-07
-5.41512e-06
-2.61568e-07
-6.99465e-06
-3.14364e-07
-9.11713e-06
-1.15612e-05
3.8066e-07
5.67063e-06
6.32932e-07
6.74656e-06
8.24799e-07
6.65393e-06
9.52594e-07
6.10817e-06
1.04116e-06
5.289e-06
1.09717e-06
4.39403e-06
1.12738e-06
3.49676e-06
1.13694e-06
2.63168e-06
1.12832e-06
1.80485e-06
1.10164e-06
1.00624e-06
1.05525e-06
2.19167e-07
9.87321e-07
-5.74893e-07
8.95377e-07
-1.38976e-06
7.7735e-07
-2.23544e-06
6.29111e-07
-3.11599e-06
4.43805e-07
-4.06068e-06
2.0711e-07
-5.17843e-06
-6.26877e-08
-6.72486e-06
-1.7868e-07
-9.00114e-06
-1.17398e-05
5.80983e-07
5.08965e-06
9.93007e-07
6.33454e-06
1.30627e-06
6.34067e-06
1.53612e-06
5.87832e-06
1.7053e-06
5.11983e-06
1.82585e-06
4.27348e-06
1.9044e-06
3.41821e-06
1.94658e-06
2.58949e-06
1.95533e-06
1.7961e-06
1.93063e-06
1.03094e-06
1.86968e-06
2.80112e-07
1.76946e-06
-4.7467e-07
1.626e-06
-1.24629e-06
1.43646e-06
-2.0459e-06
1.19845e-06
-2.87798e-06
9.06907e-07
-3.76914e-06
5.50976e-07
-4.8225e-06
1.91207e-07
-6.36509e-06
-1.72433e-08
-8.79269e-06
-1.17571e-05
7.52129e-07
4.33752e-06
1.31439e-06
5.77228e-06
1.74692e-06
5.90813e-06
2.09506e-06
5.53018e-06
2.36053e-06
4.85436e-06
2.55916e-06
4.07485e-06
2.69809e-06
3.27928e-06
2.78274e-06
2.50484e-06
2.81621e-06
1.76263e-06
2.79832e-06
1.04883e-06
2.72524e-06
3.53196e-07
2.59248e-06
-3.41912e-07
2.39584e-06
-1.04965e-06
2.13093e-06
-1.78099e-06
1.79611e-06
-2.54316e-06
1.39397e-06
-3.367e-06
9.24312e-07
-4.35284e-06
4.63666e-07
-5.90444e-06
1.42336e-07
-8.47135e-06
-1.16147e-05
8.96517e-07
3.441e-06
1.57947e-06
5.08933e-06
2.13649e-06
5.35111e-06
2.61224e-06
5.05443e-06
2.99331e-06
4.47329e-06
3.28636e-06
3.7818e-06
3.49989e-06
3.06575e-06
3.63951e-06
2.36522e-06
3.70773e-06
1.69441e-06
3.70449e-06
1.05207e-06
3.62449e-06
4.33189e-07
3.4604e-06
-1.77822e-07
3.21102e-06
-8.00268e-07
2.86915e-06
-1.43912e-06
2.43296e-06
-2.10697e-06
1.91472e-06
-2.84876e-06
1.31947e-06
-3.75759e-06
7.32282e-07
-5.31726e-06
2.91245e-07
-8.03032e-06
-1.13235e-05
9.18933e-07
2.52207e-06
1.71472e-06
4.29354e-06
2.42005e-06
4.64578e-06
3.04463e-06
4.42985e-06
3.56639e-06
3.95154e-06
3.97787e-06
3.37032e-06
4.28539e-06
2.75823e-06
4.49596e-06
2.15464e-06
4.61142e-06
1.57895e-06
4.63266e-06
1.03083e-06
4.55654e-06
5.09311e-07
4.36634e-06
1.23699e-08
4.07072e-06
-5.04647e-07
3.65749e-06
-1.02589e-06
3.12329e-06
-1.57277e-06
2.48855e-06
-2.21402e-06
1.75806e-06
-3.0271e-06
1.03276e-06
-4.59196e-06
4.62235e-07
-7.45979e-06
-1.08613e-05
8.2176e-07
1.70031e-06
1.6855e-06
3.4298e-06
2.56324e-06
3.76804e-06
3.3604e-06
3.63269e-06
4.04014e-06
3.2718e-06
4.59147e-06
2.81899e-06
5.01331e-06
2.33639e-06
5.31126e-06
1.85669e-06
5.48722e-06
1.403e-06
5.54272e-06
9.75334e-07
5.4746e-06
5.77424e-07
5.29284e-06
1.94127e-07
4.96736e-06
-1.79162e-07
4.51191e-06
-5.70439e-07
3.90899e-06
-9.69846e-07
3.18525e-06
-1.49029e-06
2.33333e-06
-2.17518e-06
1.46331e-06
-3.72194e-06
6.83203e-07
-6.67968e-06
-1.01781e-05
3.90027e-07
1.31028e-06
1.38058e-06
2.43925e-06
2.43604e-06
2.71258e-06
3.42925e-06
2.63949e-06
4.28749e-06
2.41355e-06
4.99952e-06
2.10696e-06
5.56104e-06
1.77487e-06
5.97242e-06
1.44531e-06
6.23902e-06
1.1364e-06
6.36622e-06
8.48134e-07
6.35652e-06
5.87123e-07
6.21691e-06
3.33737e-07
5.94213e-06
9.56165e-08
5.52621e-06
-1.54522e-07
4.94318e-06
-3.8681e-07
4.23187e-06
-7.78975e-07
3.33844e-06
-1.28175e-06
2.35937e-06
-2.74288e-06
1.16339e-06
-5.4837e-06
-9.01467e-06
-5.1756e-07
1.82784e-06
6.25385e-07
1.2963e-06
2.02694e-06
1.31102e-06
3.30399e-06
1.36244e-06
4.40548e-06
1.31206e-06
5.33516e-06
1.17729e-06
6.0929e-06
1.01713e-06
6.67769e-06
8.60526e-07
7.10256e-06
7.11529e-07
7.37518e-06
5.75512e-07
7.51187e-06
4.5043e-07
7.51372e-06
3.31886e-07
7.38599e-06
2.23346e-07
7.1251e-06
1.06369e-07
6.7338e-06
4.48797e-09
6.20505e-06
-2.50225e-07
5.47579e-06
-5.52487e-07
4.50516e-06
-1.77224e-06
2.5165e-06
-3.49504e-06
-6.49817e-06
1.82784e-06
3.12414e-06
4.43516e-06
5.7976e-06
7.10967e-06
8.28695e-06
9.30408e-06
1.01646e-05
1.08761e-05
1.14516e-05
1.19021e-05
1.2234e-05
1.24573e-05
1.25637e-05
1.25682e-05
1.23179e-05
1.17655e-05
9.99322e-06
6.49817e-06
)
;

boundaryField
{
    movingWall
    {
        type            calculated;
        value           uniform 0;
    }
    fixedWalls
    {
        type            calculated;
        value           uniform 0;
    }
    frontAndBack
    {
        type            empty;
        value           nonuniform 0();
    }
}


// ************************************************************************* //
