/*--------------------------------*- C++ -*----------------------------------*\
| =========                 |                                                 |
| \\      /  F ield         | OpenFOAM: The Open Source CFD Toolbox           |
|  \\    /   O peration     | Version:  5.x                                   |
|   \\  /    A nd           | Web:      www.OpenFOAM.org                      |
|    \\/     M anipulation  |                                                 |
\*---------------------------------------------------------------------------*/
FoamFile
{
    version     2.0;
    format      ascii;
    class       volVectorField;
    location    "16";
    object      U;
}
// * * * * * * * * * * * * * * * * * * * * * * * * * * * * * * * * * * * * * //

dimensions      [0 1 -1 0 0 0 0];

internalField   nonuniform List<vector> 
400
(
(0.002768 -0.00360252 0)
(0.00175194 -0.000535954 0)
(-0.00607947 0.00490696 0)
(-0.0289292 0.0111839 0)
(-0.0629432 0.0139209 0)
(-0.0892019 0.012153 0)
(-0.112858 0.0103803 0)
(-0.130593 0.00801582 0)
(-0.144767 0.00588518 0)
(-0.154248 0.00353111 0)
(-0.159665 0.00155794 0)
(-0.16158 -0.000573839 0)
(-0.159234 -0.0039923 0)
(-0.15179 -0.00625543 0)
(-0.139354 -0.00963478 0)
(-0.120806 -0.0124106 0)
(-0.0967021 -0.0156297 0)
(-0.0675905 -0.0169739 0)
(-0.0364374 -0.0144718 0)
(-0.00897807 -0.00247407 0)
(-0.00252927 -0.0012699 0)
(-0.013851 0.0133575 0)
(-0.0399413 0.0314622 0)
(-0.0690722 0.0399148 0)
(-0.09373 0.0389086 0)
(-0.113932 0.0349235 0)
(-0.131064 0.0294842 0)
(-0.143827 0.0236624 0)
(-0.154364 0.0170775 0)
(-0.16152 0.0109109 0)
(-0.16552 0.00495545 0)
(-0.165929 -0.0010133 0)
(-0.162676 -0.00750059 0)
(-0.155697 -0.0146211 0)
(-0.144447 -0.0230942 0)
(-0.128265 -0.0326746 0)
(-0.107177 -0.0432749 0)
(-0.0811893 -0.0521885 0)
(-0.050433 -0.0531054 0)
(-0.0183816 -0.0323797 0)
(-0.00915864 0.0155898 0)
(-0.0324579 0.0411781 0)
(-0.0589122 0.0566229 0)
(-0.0818087 0.0607464 0)
(-0.099969 0.0572133 0)
(-0.114971 0.0501455 0)
(-0.127033 0.0413227 0)
(-0.13625 0.0319059 0)
(-0.14281 0.0231431 0)
(-0.146144 0.0144215 0)
(-0.147398 0.00567236 0)
(-0.146295 -0.00319082 0)
(-0.143125 -0.0123705 0)
(-0.136898 -0.0223441 0)
(-0.127721 -0.0337133 0)
(-0.114855 -0.0468703 0)
(-0.0979618 -0.0620705 0)
(-0.0768008 -0.078116 0)
(-0.0501476 -0.0885524 0)
(-0.0211798 -0.074926 0)
(-0.0132233 0.0393297 0)
(-0.0381099 0.0647503 0)
(-0.0611174 0.0769301 0)
(-0.0788867 0.0779385 0)
(-0.0924834 0.0718817 0)
(-0.103296 0.0623481 0)
(-0.111338 0.0510777 0)
(-0.117171 0.039319 0)
(-0.120966 0.0278178 0)
(-0.122978 0.0165856 0)
(-0.123338 0.00569744 0)
(-0.121925 -0.00524203 0)
(-0.118681 -0.016612 0)
(-0.11339 -0.0289667 0)
(-0.106014 -0.0428946 0)
(-0.0961554 -0.0589416 0)
(-0.0831227 -0.0773162 0)
(-0.0662136 -0.097249 0)
(-0.0438372 -0.1141 0)
(-0.0195065 -0.109565 0)
(-0.013445 0.0616921 0)
(-0.0360592 0.0859288 0)
(-0.0546976 0.0943635 0)
(-0.0686834 0.0920595 0)
(-0.079101 0.0831371 0)
(-0.0869439 0.0709991 0)
(-0.0924819 0.0574073 0)
(-0.0964023 0.0436606 0)
(-0.0988429 0.0303841 0)
(-0.0999302 0.0175943 0)
(-0.0996593 0.0051519 0)
(-0.0980085 -0.00731822 0)
(-0.094944 -0.0202198 0)
(-0.0904352 -0.0341668 0)
(-0.0844946 -0.0498504 0)
(-0.0770102 -0.0680399 0)
(-0.0673424 -0.0893066 0)
(-0.0543071 -0.113308 0)
(-0.0359248 -0.136175 0)
(-0.0170412 -0.138948 0)
(-0.0115014 0.0824463 0)
(-0.0301248 0.104437 0)
(-0.044781 0.109106 0)
(-0.0558003 0.10337 0)
(-0.0637294 0.0915539 0)
(-0.0695044 0.0770269 0)
(-0.0735295 0.0615958 0)
(-0.0763612 0.0464263 0)
(-0.0780393 0.0318951 0)
(-0.078639 0.0178934 0)
(-0.0781654 0.00421051 0)
(-0.0765953 -0.00948373 0)
(-0.0739038 -0.0235911 0)
(-0.070113 -0.0386715 0)
(-0.0653046 -0.0554338 0)
(-0.0595257 -0.0747777 0)
(-0.0524901 -0.0976776 0)
(-0.0430545 -0.124574 0)
(-0.0305557 -0.153302 0)
(-0.0110243 -0.162974 0)
(-0.00942205 0.09989 0)
(-0.0228627 0.119413 0)
(-0.0340666 0.120901 0)
(-0.0423631 0.112097 0)
(-0.0482277 0.0978527 0)
(-0.0525041 0.081458 0)
(-0.0555312 0.0646696 0)
(-0.0576787 0.0484288 0)
(-0.0589603 0.0329139 0)
(-0.0594329 0.0179585 0)
(-0.0590755 0.00330055 0)
(-0.0578435 -0.0114027 0)
(-0.0556919 -0.026529 0)
(-0.0526538 -0.0425446 0)
(-0.048848 -0.0601054 0)
(-0.0444036 -0.080182 0)
(-0.0393042 -0.104008 0)
(-0.0324912 -0.132999 0)
(-0.0249253 -0.165868 0)
(-0.00836459 -0.183151 0)
(-0.00650769 0.113147 0)
(-0.0154111 0.130723 0)
(-0.0235242 0.12969 0)
(-0.029281 0.118559 0)
(-0.033373 0.10255 0)
(-0.036435 0.0848207 0)
(-0.0386929 0.0670435 0)
(-0.040358 0.0499987 0)
(-0.041424 0.0337572 0)
(-0.0419188 0.0180962 0)
(-0.0418038 0.00269449 0)
(-0.0410189 -0.012803 0)
(-0.0395124 -0.0287442 0)
(-0.0373168 -0.0455024 0)
(-0.0345675 -0.0636179 0)
(-0.031446 -0.0840661 0)
(-0.0280927 -0.108336 0)
(-0.0235853 -0.138669 0)
(-0.0203141 -0.174588 0)
(-0.00449918 -0.199058 0)
(-0.00412405 0.121386 0)
(-0.0084519 0.137964 0)
(-0.0134766 0.135344 0)
(-0.0168431 0.12288 0)
(-0.0193155 0.10579 0)
(-0.0212853 0.0872368 0)
(-0.0228414 0.0688311 0)
(-0.0240725 0.0512548 0)
(-0.0249495 0.0345287 0)
(-0.025474 0.0183854 0)
(-0.0256067 0.00246119 0)
(-0.0252925 -0.0136103 0)
(-0.0244888 -0.0301496 0)
(-0.0232179 -0.0474497 0)
(-0.021624 -0.0659108 0)
(-0.019917 -0.0864622 0)
(-0.0183744 -0.110874 0)
(-0.015769 -0.142042 0)
(-0.0165463 -0.18026 0)
(-0.00232293 -0.21188 0)
(-0.00080067 0.12516 0)
(-0.00183062 0.141932 0)
(-0.00399618 0.138328 0)
(-0.00502077 0.125224 0)
(-0.0059353 0.107683 0)
(-0.00681465 0.0887602 0)
(-0.00763353 0.0700525 0)
(-0.00839167 0.0522006 0)
(-0.00903455 0.0352136 0)
(-0.00954493 0.0188062 0)
(-0.00989454 0.00259226 0)
(-0.0100506 -0.0138032 0)
(-0.00999525 -0.0306817 0)
(-0.009744 -0.0482716 0)
(-0.00942824 -0.0668414 0)
(-0.00925645 -0.0872281 0)
(-0.00977256 -0.111446 0)
(-0.0087482 -0.143007 0)
(-0.0134578 -0.182956 0)
(0.000568223 -0.221443 0)
(0.00163999 0.123813 0)
(0.00422535 0.141995 0)
(0.00526606 0.138322 0)
(0.00640862 0.125466 0)
(0.00702743 0.108041 0)
(0.00729466 0.0892482 0)
(0.007288 0.0706067 0)
(0.00707835 0.0527606 0)
(0.00673722 0.0357529 0)
(0.00629217 0.0193157 0)
(0.00575736 0.00306657 0)
(0.00513731 -0.0133714 0)
(0.00441595 -0.0302881 0)
(0.0035782 -0.0478792 0)
(0.00248706 -0.0663045 0)
(0.00100584 -0.0862773 0)
(-0.00174489 -0.10999 0)
(-0.00218261 -0.141556 0)
(-0.0110118 -0.183465 0)
(0.00281116 -0.228396 0)
(0.0037331 0.119233 0)
(0.0102611 0.138862 0)
(0.0138782 0.136104 0)
(0.0173613 0.12427 0)
(0.0197085 0.107217 0)
(0.0212604 0.0888358 0)
(0.0222081 0.0705148 0)
(0.0226619 0.0529136 0)
(0.0227093 0.0361163 0)
(0.0223863 0.0198916 0)
(0.0216941 0.00387918 0)
(0.0206132 -0.012294 0)
(0.0190864 -0.0289174 0)
(0.017105 -0.0461791 0)
(0.0144892 -0.0641687 0)
(0.0112101 -0.0834879 0)
(0.00621875 -0.106366 0)
(0.00421436 -0.137613 0)
(-0.00887283 -0.181705 0)
(0.00611592 -0.23258 0)
(0.00607726 0.110094 0)
(0.0157958 0.132192 0)
(0.0224923 0.130651 0)
(0.0279523 0.120521 0)
(0.0322279 0.10456 0)
(0.0352235 0.0870457 0)
(0.037297 0.0694455 0)
(0.0385707 0.0524381 0)
(0.0391304 0.0361694 0)
(0.0390141 0.0204652 0)
(0.0382093 0.00501038 0)
(0.0366832 -0.0105476 0)
(0.0343259 -0.0264928 0)
(0.0311452 -0.043039 0)
(0.0268605 -0.0602516 0)
(0.0217256 -0.0786683 0)
(0.0144757 -0.100428 0)
(0.0104632 -0.131371 0)
(-0.00678323 -0.178094 0)
(0.00989409 -0.234762 0)
(0.00798161 0.0970787 0)
(0.0208383 0.123186 0)
(0.0302562 0.123941 0)
(0.0380036 0.115225 0)
(0.0443666 0.100691 0)
(0.0491119 0.0842471 0)
(0.0525838 0.0675867 0)
(0.0549083 0.0514184 0)
(0.0561581 0.0359414 0)
(0.0563754 0.0210445 0)
(0.0555298 0.00647033 0)
(0.0535877 -0.00810916 0)
(0.0503695 -0.0229713 0)
(0.0459531 -0.038372 0)
(0.039871 -0.0544207 0)
(0.0328173 -0.0716586 0)
(0.0230336 -0.0921698 0)
(0.0169484 -0.123215 0)
(-0.00422311 -0.173033 0)
(0.0148111 -0.235275 0)
(0.00983864 0.0805601 0)
(0.0251079 0.109945 0)
(0.0370188 0.113356 0)
(0.0471563 0.10651 0)
(0.0558157 0.0939495 0)
(0.0626709 0.0791756 0)
(0.0678694 0.0639878 0)
(0.0715306 0.0491682 0)
(0.073701 0.0349665 0)
(0.0744358 0.0213331 0)
(0.0736745 0.0080855 0)
(0.0713911 -0.00506614 0)
(0.0673106 -0.0183641 0)
(0.0616762 -0.0321263 0)
(0.0536982 -0.0465346 0)
(0.0446669 -0.0623174 0)
(0.0320356 -0.0814739 0)
(0.0239552 -0.11283 0)
(-0.00166871 -0.166325 0)
(0.0203982 -0.235144 0)
(0.0100673 0.0609214 0)
(0.0276248 0.0957887 0)
(0.0416537 0.102129 0)
(0.054293 0.0969277 0)
(0.0657172 0.0861588 0)
(0.0752375 0.0731556 0)
(0.082633 0.0595883 0)
(0.0879893 0.0463061 0)
(0.0913668 0.0336272 0)
(0.0928514 0.0215372 0)
(0.0923591 0.00995308 0)
(0.0898987 -0.00147549 0)
(0.0850455 -0.0127484 0)
(0.0783581 -0.0243761 0)
(0.0685076 -0.0366149 0)
(0.0576247 -0.0505945 0)
(0.0419711 -0.0681254 0)
(0.0319762 -0.0999762 0)
(0.000832038 -0.157976 0)
(0.027327 -0.232103 0)
(0.00928239 0.0413008 0)
(0.0269067 0.0760926 0)
(0.0431622 0.0844329 0)
(0.0587713 0.081388 0)
(0.0733488 0.0730531 0)
(0.085998 0.0626651 0)
(0.0960418 0.0516397 0)
(0.10347 0.0407439 0)
(0.108323 0.0303988 0)
(0.110821 0.0205928 0)
(0.110713 0.0113374 0)
(0.10844 0.00228151 0)
(0.103207 -0.00648764 0)
(0.0960583 -0.0155465 0)
(0.084788 -0.0250381 0)
(0.0727806 -0.036746 0)
(0.0543056 -0.052087 0)
(0.0423632 -0.0845488 0)
(0.00516272 -0.146122 0)
(0.0368185 -0.221298 0)
(-0.000207202 0.0254253 0)
(0.0200749 0.0607069 0)
(0.038586 0.0685977 0)
(0.0579032 0.0667438 0)
(0.0763814 0.0604223 0)
(0.0924523 0.0524219 0)
(0.105557 0.0438393 0)
(0.11558 0.0352605 0)
(0.122437 0.0271872 0)
(0.126651 0.0196433 0)
(0.127716 0.0127387 0)
(0.126612 0.00619082 0)
(0.121985 8.35062e-05 0)
(0.115985 -0.00633027 0)
(0.104799 -0.0127766 0)
(0.0937508 -0.021657 0)
(0.0734805 -0.0340836 0)
(0.0608249 -0.0655069 0)
(0.0184761 -0.126186 0)
(0.0535919 -0.192873 0)
(-0.0135429 0.0290899 0)
(-0.000327151 0.0307663 0)
(0.0267171 0.0344957 0)
(0.0528963 0.0355424 0)
(0.0764372 0.0337724 0)
(0.097036 0.0299166 0)
(0.114097 0.0254823 0)
(0.127917 0.0210027 0)
(0.138037 0.0167653 0)
(0.145399 0.0127532 0)
(0.149259 0.00919444 0)
(0.151079 0.00563146 0)
(0.149238 0.00264379 0)
(0.146146 -0.001193 0)
(0.137836 -0.00431225 0)
(0.13045 -0.0105218 0)
(0.112058 -0.0186926 0)
(0.102572 -0.045203 0)
(0.0598277 -0.0914051 0)
(0.0870086 -0.139195 0)
(0.0429017 0.0379635 0)
(0.0484885 0.0295804 0)
(0.0704715 0.0270659 0)
(0.100824 0.0268597 0)
(0.127874 0.025905 0)
(0.152849 0.0239133 0)
(0.174675 0.0213314 0)
(0.194169 0.0188363 0)
(0.209955 0.016378 0)
(0.223583 0.0142633 0)
(0.23357 0.012208 0)
(0.241959 0.0105113 0)
(0.246927 0.00870416 0)
(0.250682 0.00721036 0)
(0.251004 0.00524216 0)
(0.248119 0.0024221 0)
(0.238425 0.00246779 0)
(0.223292 -0.00896162 0)
(0.174768 -0.0123394 0)
(0.158677 -0.059408 0)
)
;

boundaryField
{
    movingWall
    {
        type            fixedValue;
        value           uniform (1 0 0);
    }
    fixedWalls
    {
        type            noSlip;
    }
    frontAndBack
    {
        type            empty;
    }
}


// ************************************************************************* //
