/*--------------------------------*- C++ -*----------------------------------*\
| =========                 |                                                 |
| \\      /  F ield         | OpenFOAM: The Open Source CFD Toolbox           |
|  \\    /   O peration     | Version:  5.x                                   |
|   \\  /    A nd           | Web:      www.OpenFOAM.org                      |
|    \\/     M anipulation  |                                                 |
\*---------------------------------------------------------------------------*/
FoamFile
{
    version     2.0;
    format      ascii;
    class       volScalarField;
    location    "18";
    object      epsilon;
}
// * * * * * * * * * * * * * * * * * * * * * * * * * * * * * * * * * * * * * //

dimensions      [0 2 -3 0 0 0 0];

internalField   nonuniform List<scalar> 
400
(
2.96266e-05
8.93432e-05
0.000337559
0.000670452
0.000895296
0.00106828
0.00120634
0.00133919
0.00145448
0.0015724
0.00168192
0.00179768
0.00190842
0.00197538
0.00200345
0.00199013
0.00182075
0.00139173
0.000848262
0.000589155
0.0001277
0.000333943
0.000830744
0.00110089
0.0011573
0.00117921
0.00118425
0.00122153
0.00126656
0.00135323
0.00146464
0.00161385
0.00179078
0.00199821
0.00221966
0.00241601
0.00250092
0.0024545
0.00192193
0.00124312
0.00040207
0.000950299
0.00115994
0.0011829
0.00114219
0.00112046
0.00110275
0.00111984
0.00117813
0.00125244
0.00134542
0.00145556
0.00158761
0.00174861
0.00194078
0.00216161
0.00232833
0.00238716
0.00217229
0.00163574
0.00084439
0.00123147
0.0012427
0.00114542
0.00106117
0.00100714
0.000990011
0.000989593
0.00101667
0.00104879
0.00110005
0.00117376
0.00128314
0.00143786
0.00165394
0.00193386
0.00222099
0.00234769
0.00228393
0.00188855
0.00115723
0.00138423
0.00121575
0.00105207
0.000935168
0.000872199
0.000831999
0.000803439
0.000788146
0.000782193
0.000794353
0.00084335
0.000937847
0.0010967
0.00134473
0.00170067
0.00214578
0.00239492
0.00242726
0.00207743
0.00132876
0.00137997
0.00114339
0.000935624
0.000815946
0.000738128
0.000671902
0.000611966
0.000560958
0.000532181
0.00052273
0.000545039
0.000625551
0.000777039
0.00103978
0.00145665
0.00204245
0.002506
0.0026216
0.00222964
0.00135771
0.00133383
0.00103934
0.000832776
0.000711264
0.000619219
0.000533089
0.000452803
0.000385009
0.000343407
0.000326826
0.000329068
0.000388853
0.000516627
0.00076343
0.00120489
0.00190955
0.00263105
0.00285778
0.00235198
0.00133872
0.0012341
0.00094187
0.000746699
0.00062593
0.000525266
0.000428667
0.000340891
0.000270489
0.000226979
0.000208199
0.000205586
0.000243202
0.000338134
0.000545681
0.000968356
0.00173742
0.00274307
0.00314972
0.00245319
0.00128977
0.00111952
0.000856293
0.000678878
0.000561519
0.000458006
0.000359085
0.000272177
0.00020575
0.000166244
0.000149556
0.000147334
0.000172512
0.000239013
0.0003991
0.000778783
0.00157132
0.00281508
0.00344798
0.00252953
0.00119747
0.00101745
0.000785887
0.000626828
0.00051552
0.000414721
0.000318485
0.000235774
0.000175331
0.000139894
0.000125103
0.000124571
0.000143101
0.000192827
0.000316152
0.000640625
0.00143434
0.00286064
0.00376279
0.0025907
0.00109789
0.000933233
0.000730628
0.000590297
0.000486368
0.000389797
0.000299764
0.000225442
0.000170846
0.00013679
0.000120099
0.00011984
0.00013462
0.000175722
0.000278237
0.000557713
0.00131547
0.00290719
0.0040584
0.00263021
0.00100821
0.000876122
0.000692855
0.000565247
0.000468479
0.000382046
0.000300975
0.000230283
0.000177823
0.000144555
0.000127863
0.000127904
0.000138641
0.000173177
0.000266409
0.000520824
0.0012442
0.00296524
0.00432541
0.00265673
0.00091433
0.000836906
0.000672437
0.000557725
0.000469167
0.000386402
0.000309866
0.000244661
0.000195931
0.000164007
0.000146701
0.000147092
0.000157243
0.000189126
0.000272565
0.000510363
0.00121558
0.00303962
0.00451954
0.00266957
0.000822698
0.000815362
0.000681071
0.000565723
0.00047907
0.000400712
0.000330646
0.000272114
0.000226676
0.000195789
0.000176879
0.000177244
0.000187413
0.000219919
0.000304199
0.000534067
0.00121407
0.00314697
0.00461994
0.00267632
0.000723488
0.000790386
0.000700668
0.000590195
0.000505594
0.000430792
0.000364588
0.000309591
0.000266721
0.000237446
0.000217956
0.000218688
0.000230022
0.00026579
0.000356903
0.000598687
0.00128576
0.00330942
0.00465704
0.00261231
0.000614268
0.000779599
0.000742454
0.000651551
0.000566761
0.000492581
0.000426058
0.000369978
0.000325341
0.000294968
0.000273931
0.000275419
0.000289707
0.000333288
0.000441274
0.000717007
0.00143482
0.00351403
0.00450493
0.00250472
0.000502614
0.000737737
0.000761738
0.000731222
0.000667652
0.000596869
0.000527858
0.000467153
0.000418132
0.000383315
0.000363281
0.000367696
0.000390494
0.000454849
0.00060565
0.000971024
0.00177694
0.00377691
0.00418413
0.00236427
0.000340178
0.000644796
0.000837397
0.00090468
0.000889448
0.000836093
0.000759253
0.000687879
0.000633009
0.000592458
0.000591485
0.000612473
0.000672035
0.00081438
0.00110664
0.00175453
0.00274319
0.00416679
0.00403446
0.00219292
0.0003482
0.000637797
0.00103675
0.00125539
0.00133676
0.00133865
0.00132113
0.00130129
0.00131323
0.00135884
0.00145883
0.0016602
0.00194139
0.00240624
0.00300976
0.00395253
0.00480228
0.00472856
0.00411755
0.0019535
0.000253226
0.000385551
0.00067689
0.00096491
0.00118541
0.00133505
0.00142049
0.00147447
0.00150083
0.00151929
0.00152676
0.00153902
0.00154911
0.00157269
0.00158937
0.00164831
0.00172112
0.00181403
0.00179615
0.00160084
)
;

boundaryField
{
    movingWall
    {
        Cmu             0.09;
        kappa           0.41;
        E               9.8;
        type            epsilonWallFunction;
        value           nonuniform List<scalar> 
20
(
0.000253226
0.000385551
0.00067689
0.00096491
0.00118541
0.00133505
0.00142049
0.00147447
0.00150083
0.00151929
0.00152676
0.00153902
0.00154911
0.00157269
0.00158937
0.00164831
0.00172112
0.00181403
0.00179615
0.00160084
)
;
    }
    fixedWalls
    {
        Cmu             0.09;
        kappa           0.41;
        E               9.8;
        type            epsilonWallFunction;
        value           nonuniform List<scalar> 
60
(
2.96266e-05
0.0001277
0.00040207
0.00084439
0.00115723
0.00132876
0.00135771
0.00133872
0.00128977
0.00119747
0.00109789
0.00100821
0.00091433
0.000822698
0.000723488
0.000614268
0.000502614
0.000340178
0.0003482
0.000253226
0.000589155
0.00124312
0.00163574
0.00188855
0.00207743
0.00222964
0.00235198
0.00245319
0.00252953
0.0025907
0.00263021
0.00265673
0.00266957
0.00267632
0.00261231
0.00250472
0.00236427
0.00219292
0.0019535
0.00160084
2.96266e-05
8.93432e-05
0.000337559
0.000670452
0.000895296
0.00106828
0.00120634
0.00133919
0.00145448
0.0015724
0.00168192
0.00179768
0.00190842
0.00197538
0.00200345
0.00199013
0.00182075
0.00139173
0.000848262
0.000589155
)
;
    }
    frontAndBack
    {
        type            empty;
    }
}


// ************************************************************************* //
