/*--------------------------------*- C++ -*----------------------------------*\
| =========                 |                                                 |
| \\      /  F ield         | OpenFOAM: The Open Source CFD Toolbox           |
|  \\    /   O peration     | Version:  5.x                                   |
|   \\  /    A nd           | Web:      www.OpenFOAM.org                      |
|    \\/     M anipulation  |                                                 |
\*---------------------------------------------------------------------------*/
FoamFile
{
    version     2.0;
    format      ascii;
    class       volScalarField;
    location    "18";
    object      k;
}
// * * * * * * * * * * * * * * * * * * * * * * * * * * * * * * * * * * * * * //

dimensions      [0 2 -2 0 0 0 0];

internalField   nonuniform List<scalar> 
400
(
9.25874e-06
2.79213e-05
0.000105491
0.000209521
0.000279786
0.000333844
0.000376989
0.000418507
0.000454536
0.000491385
0.00052561
0.000561788
0.000596393
0.000617321
0.000626091
0.00062193
0.000568996
0.000434926
0.000265089
0.000184116
3.99077e-05
0.000131981
0.000273567
0.000432372
0.000500277
0.000580577
0.000626489
0.000693501
0.000748398
0.000813813
0.000875946
0.000941384
0.000999759
0.00106336
0.00111243
0.00113453
0.00113535
0.000989367
0.000651924
0.000388488
0.00012565
0.000401679
0.000556072
0.000638455
0.000691753
0.000741378
0.000776981
0.00082643
0.000869433
0.000920698
0.0009682
0.00101714
0.00106453
0.00111627
0.00116358
0.00119154
0.00119975
0.00112643
0.0008049
0.000511187
0.000263875
0.000613109
0.000696386
0.000732376
0.000758657
0.000779134
0.000802386
0.000833887
0.000864033
0.000897089
0.000926937
0.000963972
0.00101117
0.00107014
0.00113944
0.00119845
0.0012225
0.0012057
0.000948096
0.000590195
0.000361636
0.000729013
0.000755659
0.000756005
0.0007599
0.000772082
0.000784555
0.00079178
0.000792363
0.000790194
0.000797291
0.000825032
0.000874717
0.000951015
0.00105717
0.00118347
0.00125611
0.00127074
0.00107121
0.000649223
0.000415242
0.000766493
0.000767187
0.000752674
0.000748522
0.000744402
0.000726125
0.000693898
0.000662288
0.000645357
0.000640102
0.000656127
0.000706141
0.000793974
0.000930196
0.00111444
0.00128006
0.0013376
0.00119732
0.000696789
0.000424291
0.000759892
0.000760934
0.000739155
0.000719094
0.000688487
0.000644031
0.000590787
0.000543443
0.000514106
0.000502624
0.000507325
0.000551848
0.000639472
0.000788376
0.00101379
0.00128611
0.00141141
0.00131844
0.000735022
0.000418356
0.000740909
0.000743698
0.000711687
0.000680098
0.000633925
0.000573454
0.000508817
0.000453981
0.00041894
0.000404377
0.00040365
0.000438934
0.000517069
0.000660402
0.000901798
0.00124907
0.00147835
0.00144785
0.000766654
0.00040306
0.000702655
0.000712384
0.000681693
0.00064449
0.000590006
0.000521985
0.000453417
0.000397318
0.000361393
0.000345992
0.000344538
0.000371379
0.000435635
0.000564413
0.000801808
0.00118654
0.00154032
0.00156436
0.000790514
0.000374214
0.000667059
0.000681114
0.00065436
0.000616153
0.000559155
0.000489976
0.000422085
0.000368128
0.000333322
0.000318059
0.000317969
0.000339955
0.000393618
0.000503882
0.000724708
0.00112186
0.00159153
0.00167893
0.00080962
0.000343096
0.000623262
0.000647891
0.000629371
0.000593839
0.000539907
0.000473729
0.000411231
0.000361114
0.000327265
0.000310125
0.000310748
0.000329482
0.000376305
0.000475132
0.000678272
0.00107068
0.00162924
0.00177808
0.000821967
0.000315072
0.000584098
0.00062132
0.000611024
0.000580004
0.000530237
0.000472903
0.000414444
0.000366522
0.000333618
0.000316444
0.000316968
0.000331204
0.000372837
0.000465609
0.000657427
0.00104076
0.00166238
0.00186319
0.000830273
0.000285734
0.000536518
0.00059307
0.000591893
0.000572035
0.000530879
0.000478044
0.000425249
0.000381653
0.000350853
0.00033423
0.000335475
0.000348984
0.000387339
0.000472156
0.000652594
0.00102781
0.00169294
0.00190619
0.000834271
0.000257098
0.000502109
0.000576343
0.000580749
0.000569906
0.000537392
0.000491327
0.000446455
0.000407871
0.000379506
0.00036326
0.000364955
0.000378586
0.000416589
0.000499699
0.000672349
0.00102631
0.00172527
0.00192204
0.000836378
0.000226095
0.000454119
0.000551829
0.000576569
0.000572711
0.000552829
0.000514262
0.000475424
0.000441805
0.000416609
0.000401779
0.000404075
0.000418354
0.000457049
0.000540374
0.000712484
0.0010513
0.00175428
0.00191999
0.000816379
0.000191963
0.00042003
0.000538467
0.000581139
0.000585659
0.000577014
0.000552936
0.000519314
0.000488505
0.000464706
0.000449783
0.000452379
0.000467437
0.000507831
0.000593867
0.000774511
0.0010977
0.00176786
0.0018299
0.000782723
0.000157072
0.000362987
0.000505658
0.000590094
0.000617147
0.000615363
0.000602503
0.00057526
0.000546805
0.000523767
0.000510035
0.000513959
0.000531952
0.000578345
0.000673712
0.000879171
0.00120073
0.00177001
0.00170151
0.000738828
0.00010631
0.000303482
0.000512238
0.000635224
0.000711084
0.000719526
0.000711527
0.000690214
0.000659223
0.00063378
0.00062814
0.000638317
0.000668944
0.000742224
0.000870986
0.00114555
0.00146986
0.00176711
0.00155376
0.000685722
0.000108815
0.000317341
0.000545786
0.000687831
0.00077214
0.000813005
0.000830928
0.000847123
0.000865399
0.000896915
0.000944238
0.00102475
0.00113031
0.00129868
0.00149358
0.00180001
0.00193907
0.00183621
0.00145955
0.000611592
7.91352e-05
0.000120487
0.000211533
0.00030154
0.000370449
0.000417213
0.000443915
0.000460785
0.000469021
0.000474791
0.000477112
0.000480935
0.000484168
0.000490864
0.000497966
0.000514582
0.000537705
0.000566929
0.000561287
0.000500247
)
;

boundaryField
{
    movingWall
    {
        type            kqRWallFunction;
        value           nonuniform List<scalar> 
20
(
7.91352e-05
0.000120487
0.000211533
0.00030154
0.000370449
0.000417213
0.000443915
0.000460785
0.000469021
0.000474791
0.000477112
0.000480935
0.000484168
0.000490864
0.000497966
0.000514582
0.000537705
0.000566929
0.000561287
0.000500247
)
;
    }
    fixedWalls
    {
        type            kqRWallFunction;
        value           nonuniform List<scalar> 
60
(
9.25874e-06
3.99077e-05
0.00012565
0.000263875
0.000361636
0.000415242
0.000424291
0.000418356
0.00040306
0.000374214
0.000343096
0.000315072
0.000285734
0.000257098
0.000226095
0.000191963
0.000157072
0.00010631
0.000108815
7.91352e-05
0.000184116
0.000388488
0.000511187
0.000590195
0.000649223
0.000696789
0.000735022
0.000766654
0.000790514
0.00080962
0.000821967
0.000830273
0.000834271
0.000836378
0.000816379
0.000782723
0.000738828
0.000685722
0.000611592
0.000500247
9.25874e-06
2.79213e-05
0.000105491
0.000209521
0.000279786
0.000333844
0.000376989
0.000418507
0.000454536
0.000491385
0.00052561
0.000561788
0.000596393
0.000617321
0.000626091
0.00062193
0.000568996
0.000434926
0.000265089
0.000184116
)
;
    }
    frontAndBack
    {
        type            empty;
    }
}


// ************************************************************************* //
