/*--------------------------------*- C++ -*----------------------------------*\
| =========                 |                                                 |
| \\      /  F ield         | OpenFOAM: The Open Source CFD Toolbox           |
|  \\    /   O peration     | Version:  5.x                                   |
|   \\  /    A nd           | Web:      www.OpenFOAM.org                      |
|    \\/     M anipulation  |                                                 |
\*---------------------------------------------------------------------------*/
FoamFile
{
    version     2.0;
    format      ascii;
    class       volScalarField;
    location    "18";
    object      nut;
}
// * * * * * * * * * * * * * * * * * * * * * * * * * * * * * * * * * * * * * //

dimensions      [0 2 -1 0 0 0 0];

internalField   nonuniform List<scalar> 
400
(
2.60415e-07
7.85331e-07
2.96702e-06
5.89291e-06
7.86914e-06
9.38956e-06
1.0603e-05
1.17708e-05
1.27841e-05
1.38205e-05
1.47831e-05
1.58006e-05
1.67739e-05
1.73625e-05
1.76092e-05
1.74921e-05
1.60034e-05
1.22326e-05
7.45584e-06
5.17841e-06
1.12245e-06
4.69457e-06
8.10777e-06
1.52832e-05
1.94633e-05
2.5726e-05
2.98281e-05
3.5435e-05
3.98001e-05
4.40473e-05
4.71482e-05
4.94212e-05
5.02331e-05
5.09289e-05
5.01766e-05
4.79489e-05
4.63875e-05
3.58917e-05
1.9902e-05
1.09266e-05
3.53402e-06
1.52806e-05
2.39922e-05
3.10138e-05
3.77055e-05
4.41496e-05
4.92704e-05
5.48908e-05
5.77457e-05
6.09143e-05
6.2707e-05
6.39691e-05
6.42415e-05
6.41335e-05
6.27854e-05
5.91132e-05
5.5639e-05
4.78378e-05
2.68417e-05
1.43776e-05
7.42158e-06
2.74724e-05
3.51217e-05
4.2145e-05
4.88147e-05
5.42471e-05
5.85288e-05
6.32412e-05
6.60882e-05
6.90596e-05
7.02959e-05
7.12515e-05
7.1716e-05
7.16813e-05
7.06488e-05
6.68428e-05
6.05612e-05
5.57291e-05
3.54213e-05
1.65998e-05
1.01711e-05
3.45547e-05
4.22718e-05
4.88932e-05
5.55732e-05
6.15111e-05
6.65835e-05
7.02262e-05
7.16943e-05
7.18449e-05
7.20216e-05
7.264e-05
7.34253e-05
7.42214e-05
7.47986e-05
7.41199e-05
6.6178e-05
6.06826e-05
4.25479e-05
1.82601e-05
1.16788e-05
3.83168e-05
4.63288e-05
5.44948e-05
6.18003e-05
6.75656e-05
7.0625e-05
7.08119e-05
7.0373e-05
7.04341e-05
7.05446e-05
7.10871e-05
7.17403e-05
7.30151e-05
7.48946e-05
7.67363e-05
7.2202e-05
6.42564e-05
4.92147e-05
1.95979e-05
1.19333e-05
3.89624e-05
5.01396e-05
5.90453e-05
6.54309e-05
6.88952e-05
7.00254e-05
6.93736e-05
6.90366e-05
6.92689e-05
6.95684e-05
7.03929e-05
7.04849e-05
7.12375e-05
7.32724e-05
7.67706e-05
7.79595e-05
6.81431e-05
5.4744e-05
2.06733e-05
1.17664e-05
4.00333e-05
5.285e-05
6.10486e-05
6.65058e-05
6.88555e-05
6.9043e-05
6.8352e-05
6.85752e-05
6.95922e-05
7.06863e-05
7.1328e-05
7.12972e-05
7.11624e-05
7.19318e-05
7.55833e-05
8.08188e-05
7.1707e-05
5.98984e-05
2.1563e-05
1.13362e-05
3.96914e-05
5.33395e-05
6.16068e-05
6.65748e-05
6.84044e-05
6.82906e-05
6.79809e-05
6.90526e-05
7.07058e-05
7.20396e-05
7.25128e-05
7.19543e-05
7.14604e-05
7.18383e-05
7.42962e-05
8.06381e-05
7.58536e-05
6.38783e-05
2.22342e-05
1.05249e-05
3.93601e-05
5.31278e-05
6.14792e-05
6.62787e-05
6.78503e-05
6.78427e-05
6.80059e-05
6.95632e-05
7.14778e-05
7.27763e-05
7.30454e-05
7.26845e-05
7.23144e-05
7.22777e-05
7.37845e-05
7.89713e-05
7.96908e-05
6.7421e-05
2.27713e-05
9.64974e-06
3.74622e-05
5.17072e-05
6.03927e-05
6.52553e-05
6.73042e-05
6.73788e-05
6.75119e-05
6.86952e-05
7.04674e-05
7.20735e-05
7.25198e-05
7.25763e-05
7.25266e-05
7.30224e-05
7.42403e-05
7.843e-05
8.2175e-05
7.01114e-05
2.31186e-05
8.86155e-06
3.50469e-05
5.01454e-05
5.94457e-05
6.4627e-05
6.62319e-05
6.68738e-05
6.71292e-05
6.79916e-05
6.92958e-05
7.04841e-05
7.06948e-05
7.12101e-05
7.2242e-05
7.3238e-05
7.46872e-05
7.83536e-05
8.38773e-05
7.22318e-05
2.33527e-05
8.03641e-06
3.09552e-05
4.70763e-05
5.65338e-05
6.27711e-05
6.56438e-05
6.6375e-05
6.6522e-05
6.69077e-05
6.75508e-05
6.85332e-05
6.8861e-05
6.97082e-05
7.13962e-05
7.36111e-05
7.51017e-05
7.82137e-05
8.48603e-05
7.2357e-05
2.34647e-05
7.23103e-06
2.78284e-05
4.38947e-05
5.36557e-05
6.10169e-05
6.48623e-05
6.57084e-05
6.59245e-05
6.60514e-05
6.62051e-05
6.71431e-05
6.76314e-05
6.88294e-05
7.10224e-05
7.38757e-05
7.61791e-05
7.8083e-05
8.51263e-05
7.19668e-05
2.35239e-05
6.35907e-06
2.34824e-05
3.91147e-05
5.06932e-05
5.83864e-05
6.38495e-05
6.52842e-05
6.57077e-05
6.58636e-05
6.57863e-05
6.66573e-05
6.71955e-05
6.84795e-05
7.07341e-05
7.36343e-05
7.6312e-05
7.7363e-05
8.36929e-05
7.1241e-05
2.29615e-05
5.3991e-06
2.03672e-05
3.51473e-05
4.66502e-05
5.44669e-05
6.08328e-05
6.45838e-05
6.56035e-05
6.60148e-05
6.58907e-05
6.64672e-05
6.68733e-05
6.78781e-05
6.96404e-05
7.19303e-05
7.52964e-05
7.55816e-05
8.00449e-05
6.68975e-05
2.20141e-05
4.41778e-06
1.6074e-05
3.02099e-05
4.28583e-05
5.13416e-05
5.70988e-05
6.18934e-05
6.37545e-05
6.43566e-05
6.44114e-05
6.44465e-05
6.46562e-05
6.52189e-05
6.61834e-05
6.74481e-05
7.16406e-05
7.30227e-05
7.46552e-05
6.22742e-05
2.07793e-05
2.99007e-06
1.28554e-05
2.82004e-05
4.01422e-05
5.1164e-05
5.57289e-05
6.00121e-05
6.23301e-05
6.17869e-05
6.10185e-05
6.0036e-05
5.98727e-05
5.99281e-05
6.08815e-05
6.16962e-05
6.7315e-05
7.08823e-05
6.74477e-05
5.38545e-05
1.92981e-05
3.0605e-06
1.42106e-05
2.58592e-05
3.39177e-05
4.01403e-05
4.44388e-05
4.70354e-05
4.96319e-05
5.13256e-05
5.32813e-05
5.50049e-05
5.69274e-05
5.92281e-05
6.30824e-05
6.6706e-05
7.37762e-05
7.04664e-05
6.41737e-05
4.65631e-05
1.72327e-05
2.22574e-06
3.38878e-06
5.94948e-06
8.48097e-06
1.04191e-05
1.17344e-05
1.24854e-05
1.29599e-05
1.31916e-05
1.33538e-05
1.34188e-05
1.35261e-05
1.36192e-05
1.37887e-05
1.40416e-05
1.44581e-05
1.51189e-05
1.59461e-05
1.5786e-05
1.4069e-05
)
;

boundaryField
{
    movingWall
    {
        type            nutkWallFunction;
        Cmu             0.09;
        kappa           0.41;
        E               9.8;
        value           uniform 0;
    }
    fixedWalls
    {
        type            nutkWallFunction;
        Cmu             0.09;
        kappa           0.41;
        E               9.8;
        value           uniform 0;
    }
    frontAndBack
    {
        type            empty;
    }
}


// ************************************************************************* //
