/*--------------------------------*- C++ -*----------------------------------*\
| =========                 |                                                 |
| \\      /  F ield         | OpenFOAM: The Open Source CFD Toolbox           |
|  \\    /   O peration     | Version:  5.x                                   |
|   \\  /    A nd           | Web:      www.OpenFOAM.org                      |
|    \\/     M anipulation  |                                                 |
\*---------------------------------------------------------------------------*/
FoamFile
{
    version     2.0;
    format      ascii;
    class       volScalarField;
    location    "18";
    object      p;
}
// * * * * * * * * * * * * * * * * * * * * * * * * * * * * * * * * * * * * * //

dimensions      [0 2 -2 0 0 0 0];

internalField   nonuniform List<scalar> 
400
(
-4.46193e-09
-8.48822e-05
-0.000149789
-0.000416637
-0.00128327
-0.00271936
-0.00439418
-0.00600135
-0.00730429
-0.00816627
-0.00847344
-0.00811962
-0.0071007
-0.00541535
-0.00307236
-0.000252704
0.00265838
0.0050692
0.00647382
0.00678737
0.00010095
-1.42813e-06
-0.000241063
-0.00086858
-0.0019911
-0.00351521
-0.00518263
-0.0067487
-0.00802531
-0.00888739
-0.00923014
-0.0089865
-0.00809986
-0.00654647
-0.00436696
-0.00168212
0.00119376
0.00375699
0.00548367
0.00620231
0.000267412
-6.85284e-05
-0.000702219
-0.00176294
-0.00322007
-0.00488629
-0.00656288
-0.00808163
-0.00931146
-0.0101242
-0.0104416
-0.0102281
-0.00945437
-0.00810961
-0.0062125
-0.00384071
-0.00118347
0.0014177
0.00348374
0.00454589
2.78347e-05
-0.000538963
-0.00159096
-0.00307171
-0.00480673
-0.00659115
-0.00826586
-0.00970833
-0.0108192
-0.0115316
-0.0118076
-0.011621
-0.0109519
-0.00980122
-0.0081845
-0.00615137
-0.00380806
-0.00136655
0.000778983
0.00196647
-0.000788735
-0.00155559
-0.00290811
-0.00463788
-0.00650318
-0.0083081
-0.00992129
-0.011255
-0.0122527
-0.0128815
-0.0131208
-0.0129573
-0.0123852
-0.0114113
-0.0100517
-0.00834026
-0.00633866
-0.00418084
-0.0021661
-0.000994754
-0.00214684
-0.00301388
-0.00448185
-0.00626895
-0.00812631
-0.009868
-0.0113823
-0.0126058
-0.0135064
-0.014066
-0.0142753
-0.0141316
-0.0136401
-0.0128137
-0.0116718
-0.0102415
-0.00856571
-0.00674091
-0.0050313
-0.00390993
-0.00376253
-0.0046395
-0.00607387
-0.0077946
-0.00956114
-0.0111958
-0.012599
-0.0137206
-0.0145393
-0.0150448
-0.0152339
-0.0151097
-0.0146824
-0.0139706
-0.0129987
-0.0117944
-0.0103969
-0.00888724
-0.00750679
-0.00648651
-0.00530079
-0.00613544
-0.00746813
-0.0090758
-0.0107245
-0.0122448
-0.0135448
-0.0145808
-0.0153359
-0.0158031
-0.0159812
-0.0158751
-0.015497
-0.0148687
-0.0140208
-0.0129866
-0.0118068
-0.0105586
-0.00946903
-0.00854781
-0.00651504
-0.00729791
-0.00851627
-0.0100141
-0.0115564
-0.0129808
-0.0142008
-0.0151751
-0.0158873
-0.0163304
-0.0165036
-0.0164114
-0.0160662
-0.0154921
-0.0147253
-0.0138083
-0.0127872
-0.011727
-0.0108589
-0.0100144
-0.00729725
-0.00800402
-0.00913055
-0.0105536
-0.0120201
-0.0133814
-0.0145536
-0.015494
-0.0161841
-0.0166159
-0.0167876
-0.0167029
-0.0163742
-0.0158264
-0.015101
-0.014251
-0.0133333
-0.0123843
-0.0116852
-0.0108345
-0.007599
-0.00822553
-0.00929568
-0.0106737
-0.0121004
-0.013436
-0.0145947
-0.0155296
-0.0162181
-0.0166503
-0.016823
-0.0167388
-0.0164099
-0.0158623
-0.015142
-0.0143109
-0.0134402
-0.0125197
-0.0119785
-0.010987
-0.00741512
-0.00799327
-0.00902645
-0.0103818
-0.0118011
-0.0131435
-0.0143201
-0.0152767
-0.0159845
-0.0164294
-0.0166058
-0.0165152
-0.0161701
-0.0155979
-0.0148495
-0.0139944
-0.013108
-0.0121665
-0.0117832
-0.0104868
-0.00683101
-0.00738115
-0.00838472
-0.00971135
-0.0111413
-0.0125144
-0.0137352
-0.0147389
-0.0154863
-0.0159568
-0.0161413
-0.0160391
-0.0156635
-0.0150438
-0.0142361
-0.0133146
-0.0123704
-0.0114128
-0.0110387
-0.0094437
-0.00597477
-0.0064889
-0.00744323
-0.00871863
-0.0101479
-0.011564
-0.0128517
-0.0139269
-0.0147355
-0.0152471
-0.0154471
-0.0153318
-0.0149142
-0.0142266
-0.0133311
-0.0123074
-0.0112742
-0.0102604
-0.00979386
-0.00799842
-0.00500554
-0.00544824
-0.0062926
-0.00747206
-0.00887421
-0.0103355
-0.0117072
-0.0128756
-0.0137661
-0.0143355
-0.0145626
-0.0144386
-0.0139735
-0.0132025
-0.0121943
-0.0110313
-0.00985992
-0.00871317
-0.00811526
-0.00614867
-0.00411611
-0.00439873
-0.00501445
-0.00602456
-0.00737296
-0.00888072
-0.0103517
-0.0116338
-0.0126288
-0.0132771
-0.0135495
-0.0134338
-0.0129297
-0.0120721
-0.0109318
-0.00958415
-0.00819264
-0.00678604
-0.0059143
-0.00346143
-0.00348995
-0.00346076
-0.00371825
-0.0044961
-0.0057732
-0.00732626
-0.00890225
-0.0103105
-0.0114281
-0.0121764
-0.0125141
-0.0124198
-0.0119122
-0.0109845
-0.00970356
-0.00811439
-0.00637174
-0.00445051
-0.00276429
0.00120406
-0.00317712
-0.00263775
-0.00245141
-0.00298715
-0.00419563
-0.00578754
-0.00746825
-0.00901433
-0.010276
-0.0111531
-0.0115923
-0.0115618
-0.0110675
-0.0100987
-0.00868811
-0.00679552
-0.00451166
-0.00157901
0.00205441
0.00932253
-0.0031267
-0.00190107
-0.0013775
-0.00176472
-0.00292236
-0.00453328
-0.00629371
-0.00795984
-0.00935465
-0.0103601
-0.0109088
-0.0109647
-0.0105156
-0.00953122
-0.00801579
-0.00578765
-0.00270858
0.00195807
0.0090694
0.0211774
-0.00351733
-0.000726546
2.85826e-05
-0.000503064
-0.00171268
-0.00336165
-0.0051983
-0.00697236
-0.00848567
-0.00960388
-0.0102465
-0.0103663
-0.00994888
-0.00893501
-0.00742324
-0.00486993
-0.000862249
0.00623375
0.0177877
0.0334148
)
;

boundaryField
{
    movingWall
    {
        type            zeroGradient;
    }
    fixedWalls
    {
        type            zeroGradient;
    }
    frontAndBack
    {
        type            empty;
    }
}


// ************************************************************************* //
