/*--------------------------------*- C++ -*----------------------------------*\
| =========                 |                                                 |
| \\      /  F ield         | OpenFOAM: The Open Source CFD Toolbox           |
|  \\    /   O peration     | Version:  5.x                                   |
|   \\  /    A nd           | Web:      www.OpenFOAM.org                      |
|    \\/     M anipulation  |                                                 |
\*---------------------------------------------------------------------------*/
FoamFile
{
    version     2.0;
    format      ascii;
    class       surfaceScalarField;
    location    "18";
    object      phi;
}
// * * * * * * * * * * * * * * * * * * * * * * * * * * * * * * * * * * * * * //

dimensions      [0 3 -1 0 0 0 0];

internalField   nonuniform List<scalar> 
760
(
1.41728e-07
-1.41726e-07
-1.15928e-07
2.57656e-07
-9.23328e-07
8.074e-07
-2.18943e-06
1.2661e-06
-3.57374e-06
1.38431e-06
-4.82208e-06
1.24834e-06
-5.88261e-06
1.06053e-06
-6.72659e-06
8.43972e-07
-7.34774e-06
6.21153e-07
-7.74933e-06
4.0159e-07
-7.94344e-06
1.94112e-07
-7.91979e-06
-2.36457e-08
-7.6994e-06
-2.20393e-07
-7.26924e-06
-4.30157e-07
-6.56882e-06
-7.00422e-07
-5.5746e-06
-9.9422e-07
-4.23631e-06
-1.33829e-06
-2.61447e-06
-1.62184e-06
-9.51724e-07
-1.66275e-06
-9.51724e-07
-4.06219e-07
2.64492e-07
-1.39188e-06
1.24332e-06
-2.72392e-06
2.13944e-06
-3.96904e-06
2.51122e-06
-5.03196e-06
2.44723e-06
-5.97486e-06
2.19123e-06
-6.75259e-06
1.83826e-06
-7.35783e-06
1.44922e-06
-7.8029e-06
1.06622e-06
-8.09073e-06
6.89417e-07
-8.204e-06
3.07389e-07
-8.14449e-06
-8.31624e-08
-7.90447e-06
-4.60412e-07
-7.46524e-06
-8.69386e-07
-6.8261e-06
-1.33956e-06
-5.94547e-06
-1.87486e-06
-4.79447e-06
-2.48929e-06
-3.31911e-06
-3.09721e-06
-1.58861e-06
-3.39325e-06
-2.54033e-06
-1.00177e-06
1.26626e-06
-2.30646e-06
2.54802e-06
-3.46728e-06
3.30025e-06
-4.4451e-06
3.48904e-06
-5.27273e-06
3.27487e-06
-5.9591e-06
2.87761e-06
-6.50454e-06
2.38369e-06
-6.90279e-06
1.84747e-06
-7.16043e-06
1.32387e-06
-7.2843e-06
8.13286e-07
-7.2913e-06
3.14384e-07
-7.19113e-06
-1.83325e-07
-6.96382e-06
-6.87722e-07
-6.59166e-06
-1.24155e-06
-6.06452e-06
-1.86669e-06
-5.35548e-06
-2.5839e-06
-4.44371e-06
-3.40106e-06
-3.27674e-06
-4.26418e-06
-1.79067e-06
-4.87932e-06
-4.331e-06
-1.23325e-06
2.49951e-06
-2.43859e-06
3.75335e-06
-3.42609e-06
4.28775e-06
-4.20556e-06
4.26852e-06
-4.82779e-06
3.8971e-06
-5.30863e-06
3.35845e-06
-5.66143e-06
2.73649e-06
-5.90954e-06
2.09558e-06
-6.06147e-06
1.4758e-06
-6.12407e-06
8.75885e-07
-6.10029e-06
2.90598e-07
-5.9895e-06
-2.94114e-07
-5.78072e-06
-8.96501e-07
-5.47222e-06
-1.55005e-06
-5.05371e-06
-2.2852e-06
-4.50472e-06
-3.13289e-06
-3.79916e-06
-4.10662e-06
-2.89178e-06
-5.17155e-06
-1.64658e-06
-6.12452e-06
-5.97758e-06
-1.16835e-06
3.66787e-06
-2.19846e-06
4.78346e-06
-3.01068e-06
5.09997e-06
-3.63372e-06
4.89156e-06
-4.10573e-06
4.3691e-06
-4.45046e-06
3.70318e-06
-4.69314e-06
2.97916e-06
-4.85644e-06
2.25889e-06
-4.94701e-06
1.56636e-06
-4.9691e-06
8.97974e-07
-4.92335e-06
2.44852e-07
-4.80908e-06
-4.0839e-07
-4.62331e-06
-1.08227e-06
-4.36755e-06
-1.80581e-06
-4.03909e-06
-2.61366e-06
-3.62543e-06
-3.54654e-06
-3.0936e-06
-4.63845e-06
-2.38347e-06
-5.88168e-06
-1.39011e-06
-7.11789e-06
-7.36769e-06
-9.63682e-07
4.63155e-06
-1.79774e-06
5.61752e-06
-2.45019e-06
5.75243e-06
-2.94005e-06
5.38142e-06
-3.29927e-06
4.72832e-06
-3.55419e-06
3.9581e-06
-3.73079e-06
3.15577e-06
-3.84546e-06
2.37355e-06
-3.90361e-06
1.62452e-06
-3.90799e-06
9.02345e-07
-3.85858e-06
1.95443e-07
-3.7544e-06
-5.12564e-07
-3.59505e-06
-1.24162e-06
-3.38368e-06
-2.01719e-06
-3.12402e-06
-2.87332e-06
-2.81437e-06
-3.85619e-06
-2.43461e-06
-5.01821e-06
-1.91901e-06
-6.39728e-06
-1.13542e-06
-7.90148e-06
-8.50311e-06
-7.31592e-07
5.36314e-06
-1.3596e-06
6.24553e-06
-1.85592e-06
6.24875e-06
-2.22532e-06
5.75082e-06
-2.49496e-06
4.99796e-06
-2.68681e-06
4.14996e-06
-2.82073e-06
3.28969e-06
-2.90775e-06
2.46057e-06
-2.95231e-06
1.66908e-06
-2.95601e-06
9.06047e-07
-2.91756e-06
1.56988e-07
-2.83494e-06
-5.95184e-07
-2.7075e-06
-1.36906e-06
-2.53899e-06
-2.18569e-06
-2.33723e-06
-3.07508e-06
-2.10749e-06
-4.08593e-06
-1.83997e-06
-5.28573e-06
-1.48078e-06
-6.75648e-06
-9.31331e-07
-8.45092e-06
-9.43444e-06
-4.8296e-07
5.8461e-06
-9.25882e-07
6.68845e-06
-1.27299e-06
6.59585e-06
-1.53345e-06
6.01128e-06
-1.72714e-06
5.19165e-06
-1.86879e-06
4.29161e-06
-1.97109e-06
3.39199e-06
-2.04059e-06
2.53006e-06
-2.08019e-06
1.70868e-06
-2.09031e-06
9.16174e-07
-2.06894e-06
1.35615e-07
-2.01358e-06
-6.5054e-07
-1.92332e-06
-1.45932e-06
-1.80158e-06
-2.30743e-06
-1.65802e-06
-3.21864e-06
-1.50315e-06
-4.2408e-06
-1.33299e-06
-5.45589e-06
-1.10311e-06
-6.98635e-06
-7.25405e-07
-8.82863e-06
-1.01598e-05
-2.6232e-07
6.10842e-06
-5.18019e-07
6.94415e-06
-7.17525e-07
6.79536e-06
-8.76894e-07
6.17065e-06
-1.00105e-06
5.3158e-06
-1.09693e-06
4.3875e-06
-1.17067e-06
3.46572e-06
-1.22482e-06
2.58421e-06
-1.26057e-06
1.74443e-06
-1.27763e-06
9.33237e-07
-1.27429e-06
1.32273e-07
-1.24837e-06
-6.7646e-07
-1.19911e-06
-1.50858e-06
-1.12948e-06
-2.37706e-06
-1.04901e-06
-3.29911e-06
-9.70746e-07
-4.31907e-06
-8.94473e-07
-5.53217e-06
-7.86349e-07
-7.09448e-06
-5.68225e-07
-9.04675e-06
-1.07281e-05
-4.82041e-08
6.15663e-06
-1.305e-07
7.02644e-06
-1.97462e-07
6.86232e-06
-2.56502e-07
6.22969e-06
-3.09268e-07
5.36857e-06
-3.57616e-07
4.43585e-06
-4.00874e-07
3.50898e-06
-4.37685e-07
2.62102e-06
-4.67469e-07
1.77421e-06
-4.89751e-07
9.55519e-07
-5.03752e-07
1.46275e-07
-5.08385e-07
-6.71827e-07
-5.03553e-07
-1.51341e-06
-4.91662e-07
-2.38895e-06
-4.81044e-07
-3.30972e-06
-4.84714e-07
-4.3154e-06
-5.07034e-07
-5.50985e-06
-5.10364e-07
-7.09115e-06
-4.22964e-07
-9.13415e-06
-1.1151e-05
1.69246e-07
5.98738e-06
2.56851e-07
6.93884e-06
3.22391e-07
6.79678e-06
3.51103e-07
6.20097e-06
3.65651e-07
5.35402e-06
3.66209e-07
4.43529e-06
3.56781e-07
3.51841e-06
3.40817e-07
2.63699e-06
3.19908e-07
1.79512e-06
2.94389e-07
9.81038e-07
2.63943e-07
1.7672e-07
2.28242e-07
-6.36126e-07
1.8646e-07
-1.47163e-06
1.36596e-07
-2.33909e-06
7.19429e-08
-3.24507e-06
-2.06475e-08
-4.22281e-06
-1.42384e-07
-5.38811e-06
-2.65528e-07
-6.968e-06
-3.11319e-07
-9.08836e-06
-1.14624e-05
3.77986e-07
5.60939e-06
6.26325e-07
6.6905e-06
8.16088e-07
6.60702e-06
9.42769e-07
6.07429e-06
1.031e-06
5.26579e-06
1.08713e-06
4.37916e-06
1.11757e-06
3.48796e-06
1.1273e-06
2.62726e-06
1.11873e-06
1.80369e-06
1.09204e-06
1.00772e-06
1.04571e-06
2.23056e-07
9.77876e-07
-5.68293e-07
8.86165e-07
-1.37992e-06
7.68514e-07
-2.22144e-06
6.20778e-07
-3.09734e-06
4.35026e-07
-4.03706e-06
1.98923e-07
-5.15201e-06
-6.6803e-08
-6.70228e-06
-1.71446e-07
-8.98372e-06
-1.16338e-05
5.77952e-07
5.03144e-06
9.8532e-07
6.28313e-06
1.29493e-06
6.29742e-06
1.52281e-06
5.84641e-06
1.69131e-06
5.09729e-06
1.8119e-06
4.25857e-06
1.89071e-06
3.40916e-06
1.93308e-06
2.58488e-06
1.9419e-06
1.79487e-06
1.9172e-06
1.03242e-06
1.85632e-06
2.83932e-07
1.75623e-06
-4.68199e-07
1.61305e-06
-1.23674e-06
1.42405e-06
-2.03244e-06
1.18696e-06
-2.86024e-06
8.96402e-07
-3.7465e-06
5.42921e-07
-4.79853e-06
1.87998e-07
-6.34735e-06
-1.40733e-08
-8.78165e-06
-1.16479e-05
7.47203e-07
4.28424e-06
1.30422e-06
5.72611e-06
1.73201e-06
5.86963e-06
2.07758e-06
5.50084e-06
2.34201e-06
4.83286e-06
2.54056e-06
4.06003e-06
2.67969e-06
3.27003e-06
2.76452e-06
2.50005e-06
2.79808e-06
1.76131e-06
2.78022e-06
1.05028e-06
2.70722e-06
3.56932e-07
2.57464e-06
-3.35624e-07
2.3783e-06
-1.0404e-06
2.11401e-06
-1.76814e-06
1.78064e-06
-2.52687e-06
1.38066e-06
-3.34652e-06
9.15268e-07
-4.33314e-06
4.60408e-07
-5.89249e-06
1.51845e-07
-8.47309e-06
-1.1496e-05
8.90542e-07
3.3937e-06
1.56555e-06
5.0511e-06
2.11632e-06
5.31886e-06
2.58895e-06
5.0282e-06
2.96903e-06
4.45277e-06
3.262e-06
3.76706e-06
3.47568e-06
3.05634e-06
3.61547e-06
2.36027e-06
3.68379e-06
1.69299e-06
3.68058e-06
1.05349e-06
3.60074e-06
4.36772e-07
3.43692e-06
-1.71802e-07
3.18784e-06
-7.9132e-07
2.84658e-06
-1.42688e-06
2.41206e-06
-2.09235e-06
1.89596e-06
-2.83042e-06
1.30579e-06
-3.74297e-06
7.24481e-07
-5.31118e-06
2.99797e-07
-8.0484e-06
-1.11962e-05
9.11388e-07
2.48231e-06
1.69648e-06
4.26601e-06
2.39413e-06
4.62122e-06
3.01531e-06
4.40703e-06
3.53584e-06
3.93224e-06
3.94689e-06
3.35602e-06
4.25436e-06
2.74888e-06
4.46504e-06
2.14959e-06
4.58066e-06
1.57737e-06
4.60195e-06
1.0322e-06
4.5257e-06
5.13023e-07
4.33637e-06
1.75274e-08
4.04105e-06
-4.95999e-07
3.62844e-06
-1.01427e-06
3.0958e-06
-1.5597e-06
2.46229e-06
-2.19692e-06
1.73691e-06
-3.01759e-06
1.01594e-06
-4.59022e-06
4.61443e-07
-7.4939e-06
-1.07348e-05
8.08721e-07
1.67359e-06
1.65861e-06
3.41612e-06
2.53049e-06
3.74934e-06
3.32525e-06
3.61226e-06
4.00343e-06
3.25406e-06
4.55349e-06
2.80595e-06
4.97485e-06
2.32752e-06
5.27268e-06
1.85176e-06
5.44886e-06
1.40119e-06
5.50485e-06
9.76217e-07
5.43722e-06
5.80653e-07
5.25557e-06
1.9918e-07
4.93136e-06
-1.7179e-07
4.47713e-06
-5.60044e-07
3.87539e-06
-9.57964e-07
3.15242e-06
-1.47395e-06
2.30641e-06
-2.17158e-06
1.43923e-06
-3.72304e-06
6.72771e-07
-6.72745e-06
-1.0062e-05
3.77342e-07
1.29625e-06
1.35422e-06
2.43924e-06
2.40286e-06
2.7007e-06
3.39135e-06
2.62377e-06
4.24573e-06
2.39968e-06
4.95525e-06
2.09644e-06
5.51548e-06
1.76728e-06
5.9266e-06
1.44063e-06
6.19351e-06
1.13428e-06
6.32177e-06
8.4795e-07
6.31347e-06
5.88957e-07
6.17539e-06
3.37258e-07
5.90168e-06
1.01921e-07
5.48894e-06
-1.47308e-07
4.90704e-06
-3.76065e-07
4.19681e-06
-7.63714e-07
3.31322e-06
-1.28799e-06
2.33564e-06
-2.74545e-06
1.14654e-06
-5.53835e-06
-8.91547e-06
-5.32796e-07
1.82904e-06
6.03384e-07
1.30306e-06
2.00015e-06
1.30393e-06
3.27282e-06
1.3511e-06
4.36927e-06
1.30323e-06
5.29536e-06
1.17035e-06
6.04967e-06
1.01297e-06
6.63303e-06
8.57267e-07
7.05713e-06
7.10191e-07
7.33045e-06
5.74628e-07
7.46777e-06
4.51637e-07
7.47167e-06
3.33356e-07
7.34819e-06
2.25399e-07
7.09373e-06
1.07156e-07
6.70301e-06
1.46537e-08
6.17443e-06
-2.35132e-07
5.459e-06
-5.72562e-07
4.47532e-06
-1.76178e-06
2.49028e-06
-3.55331e-06
-6.42519e-06
1.82904e-06
3.1321e-06
4.43603e-06
5.78714e-06
7.09037e-06
8.26072e-06
9.27369e-06
1.0131e-05
1.08411e-05
1.14158e-05
1.18674e-05
1.22008e-05
1.24262e-05
1.25333e-05
1.2548e-05
1.23128e-05
1.17403e-05
9.97851e-06
6.42519e-06
)
;

boundaryField
{
    movingWall
    {
        type            calculated;
        value           uniform 0;
    }
    fixedWalls
    {
        type            calculated;
        value           uniform 0;
    }
    frontAndBack
    {
        type            empty;
        value           nonuniform 0();
    }
}


// ************************************************************************* //
