/*--------------------------------*- C++ -*----------------------------------*\
| =========                 |                                                 |
| \\      /  F ield         | OpenFOAM: The Open Source CFD Toolbox           |
|  \\    /   O peration     | Version:  5.x                                   |
|   \\  /    A nd           | Web:      www.OpenFOAM.org                      |
|    \\/     M anipulation  |                                                 |
\*---------------------------------------------------------------------------*/
FoamFile
{
    version     2.0;
    format      ascii;
    class       volVectorField;
    location    "18";
    object      U;
}
// * * * * * * * * * * * * * * * * * * * * * * * * * * * * * * * * * * * * * //

dimensions      [0 1 -1 0 0 0 0];

internalField   nonuniform List<vector> 
400
(
(0.00266429 -0.00358464 0)
(0.00206421 -0.000649161 0)
(-0.00539871 0.00488189 0)
(-0.0270824 0.0107013 0)
(-0.0614361 0.0137449 0)
(-0.0876273 0.012011 0)
(-0.111261 0.0102814 0)
(-0.128945 0.00791587 0)
(-0.143105 0.00578262 0)
(-0.152575 0.00341515 0)
(-0.158016 0.00141806 0)
(-0.159938 -0.000747203 0)
(-0.157571 -0.0041827 0)
(-0.150134 -0.00648264 0)
(-0.137665 -0.00986485 0)
(-0.119108 -0.0125939 0)
(-0.0951441 -0.0157521 0)
(-0.0664602 -0.0169571 0)
(-0.0359574 -0.0142465 0)
(-0.00870667 -0.00197517 0)
(-0.00237935 -0.00158539 0)
(-0.0131781 0.012864 0)
(-0.0387908 0.0306918 0)
(-0.0680398 0.0394438 0)
(-0.0926738 0.038579 0)
(-0.112751 0.0347155 0)
(-0.12984 0.0293501 0)
(-0.142547 0.023558 0)
(-0.153006 0.0170341 0)
(-0.160173 0.0108412 0)
(-0.16418 0.00489924 0)
(-0.164613 -0.00107546 0)
(-0.161354 -0.00755479 0)
(-0.154366 -0.0146711 0)
(-0.143088 -0.0231103 0)
(-0.126897 -0.032708 0)
(-0.105866 -0.0432547 0)
(-0.0800941 -0.0520027 0)
(-0.0497055 -0.052512 0)
(-0.0176124 -0.0311538 0)
(-0.00903786 0.0150393 0)
(-0.0319777 0.0403858 0)
(-0.0581942 0.0557987 0)
(-0.0811373 0.0601892 0)
(-0.0991777 0.0568343 0)
(-0.114083 0.0499312 0)
(-0.126088 0.0412109 0)
(-0.135242 0.0318564 0)
(-0.141852 0.023081 0)
(-0.145193 0.0143864 0)
(-0.146497 0.00563933 0)
(-0.145432 -0.0032016 0)
(-0.1423 -0.0123576 0)
(-0.136096 -0.0223072 0)
(-0.126924 -0.0336481 0)
(-0.11405 -0.0467722 0)
(-0.0971734 -0.0619073 0)
(-0.0761019 -0.077767 0)
(-0.0496375 -0.0877756 0)
(-0.0203796 -0.073499 0)
(-0.0132004 0.0384496 0)
(-0.0378289 0.063721 0)
(-0.0607092 0.0760042 0)
(-0.0784745 0.077301 0)
(-0.0919515 0.0714489 0)
(-0.102723 0.0621061 0)
(-0.110734 0.0509593 0)
(-0.116556 0.0392819 0)
(-0.120361 0.0278238 0)
(-0.122385 0.016611 0)
(-0.122772 0.00572839 0)
(-0.121387 -0.00519959 0)
(-0.11818 -0.0165494 0)
(-0.112928 -0.0288735 0)
(-0.105587 -0.0427604 0)
(-0.0957502 -0.05875 0)
(-0.082733 -0.077018 0)
(-0.0658865 -0.0967335 0)
(-0.043663 -0.113206 0)
(-0.0187878 -0.108071 0)
(-0.0135067 0.0605306 0)
(-0.0359372 0.0847221 0)
(-0.0544871 0.0933596 0)
(-0.0684383 0.0913639 0)
(-0.078771 0.0826775 0)
(-0.0866058 0.0707533 0)
(-0.0921221 0.0573039 0)
(-0.0960342 0.0436471 0)
(-0.0984705 0.0304172 0)
(-0.0995617 0.0176532 0)
(-0.0993023 0.00522698 0)
(-0.0976707 -0.00722665 0)
(-0.0946366 -0.0201093 0)
(-0.0901695 -0.0340298 0)
(-0.0842782 -0.0496745 0)
(-0.0768372 -0.0677964 0)
(-0.0671821 -0.0889273 0)
(-0.0541981 -0.112637 0)
(-0.0359572 -0.135165 0)
(-0.0162906 -0.137345 0)
(-0.0116031 0.0810789 0)
(-0.0301068 0.103139 0)
(-0.044678 0.108051 0)
(-0.0556663 0.102641 0)
(-0.0635459 0.0910797 0)
(-0.0693235 0.0767725 0)
(-0.0733282 0.0614843 0)
(-0.0761473 0.0464045 0)
(-0.077812 0.0319253 0)
(-0.0784054 0.0179595 0)
(-0.0779313 0.00430479 0)
(-0.0763705 -0.00936121 0)
(-0.0737012 -0.023438 0)
(-0.0699476 -0.0384838 0)
(-0.0651889 -0.055206 0)
(-0.0594564 -0.0744935 0)
(-0.0524272 -0.0972929 0)
(-0.0429905 -0.123962 0)
(-0.0303351 -0.152221 0)
(-0.0108197 -0.161159 0)
(-0.00951868 0.0984258 0)
(-0.0228956 0.118075 0)
(-0.0340244 0.11984 0)
(-0.0423098 0.111358 0)
(-0.048147 0.0973697 0)
(-0.0524251 0.0811886 0)
(-0.055432 0.0645389 0)
(-0.0575645 0.0483881 0)
(-0.0588281 0.0329302 0)
(-0.0592886 0.018017 0)
(-0.0589244 0.00339635 0)
(-0.0576948 -0.0112669 0)
(-0.0555581 -0.0263475 0)
(-0.0525506 -0.0423119 0)
(-0.0487922 -0.05982 0)
(-0.044401 -0.0798396 0)
(-0.0393262 -0.103591 0)
(-0.0325773 -0.132391 0)
(-0.0249331 -0.164863 0)
(-0.00770527 -0.181351 0)
(-0.00662253 0.1117 0)
(-0.0154813 0.129407 0)
(-0.0235324 0.128646 0)
(-0.0292927 0.117818 0)
(-0.0333655 0.102063 0)
(-0.0364252 0.0845383 0)
(-0.0386645 0.0668964 0)
(-0.0403148 0.0499408 0)
(-0.0413639 0.0337586 0)
(-0.0418463 0.0181439 0)
(-0.0417235 0.00278584 0)
(-0.0409373 -0.012663 0)
(-0.0394385 -0.0285465 0)
(-0.0372621 -0.0452381 0)
(-0.0345463 -0.0632851 0)
(-0.0314665 -0.0836713 0)
(-0.0281187 -0.107878 0)
(-0.0236842 -0.138051 0)
(-0.0203438 -0.173646 0)
(-0.00404161 -0.197181 0)
(-0.00422054 0.119961 0)
(-0.00854355 0.136678 0)
(-0.0135304 0.134327 0)
(-0.0169111 0.122147 0)
(-0.0193646 0.105304 0)
(-0.0213283 0.0869464 0)
(-0.0228691 0.0686724 0)
(-0.0240884 0.0511838 0)
(-0.0249531 0.0345181 0)
(-0.0254688 0.0184235 0)
(-0.0255957 0.00254666 0)
(-0.0252791 -0.0134711 0)
(-0.0244773 -0.0299453 0)
(-0.0232167 -0.0471678 0)
(-0.0216456 -0.0655476 0)
(-0.0199736 -0.0860299 0)
(-0.0184025 -0.110388 0)
(-0.0159219 -0.14143 0)
(-0.0166598 -0.179407 0)
(-0.0015828 -0.210001 0)
(-0.000927648 0.123815 0)
(-0.00194494 0.140682 0)
(-0.00409838 0.137332 0)
(-0.00514197 0.124498 0)
(-0.00603423 0.1072 0)
(-0.00690606 0.0884656 0)
(-0.00771377 0.0698861 0)
(-0.0084636 0.052121 0)
(-0.00909898 0.0351953 0)
(-0.00960471 0.018838 0)
(-0.00995136 0.00267306 0)
(-0.0101053 -0.0136667 0)
(-0.0100479 -0.0304768 0)
(-0.00979825 -0.0479816 0)
(-0.00949238 -0.0664588 0)
(-0.00935099 -0.0867642 0)
(-0.00978213 -0.110936 0)
(-0.00893436 -0.1424 0)
(-0.0136344 -0.182203 0)
(0.00126658 -0.219472 0)
(0.00153457 0.122507 0)
(0.00409126 0.140787 0)
(0.0051159 0.137347 0)
(0.00623849 0.124762 0)
(0.00687694 0.107568 0)
(0.00715046 0.0889538 0)
(0.00715191 0.0704371 0)
(0.00694814 0.0526771 0)
(0.00661152 0.0357313 0)
(0.00616844 0.0193449 0)
(0.00563445 0.00314483 0)
(0.00501552 -0.0132377 0)
(0.00429794 -0.0300861 0)
(0.00346264 -0.0475903 0)
(0.00237409 -0.0659189 0)
(0.000866373 -0.0858026 0)
(-0.00174924 -0.109458 0)
(-0.00240549 -0.140992 0)
(-0.0112161 -0.182804 0)
(0.00376167 -0.226358 0)
(0.00362673 0.117985 0)
(0.0101078 0.137703 0)
(0.0136922 0.135133 0)
(0.0171418 0.123575 0)
(0.0195 0.106745 0)
(0.0210541 0.0885378 0)
(0.0220077 0.0703404 0)
(0.0224665 0.0528264 0)
(0.0225173 0.0360931 0)
(0.0221953 0.0199204 0)
(0.0215035 0.00395684 0)
(0.0204232 -0.0121621 0)
(0.0189016 -0.028719 0)
(0.0169223 -0.0458947 0)
(0.014317 -0.0637872 0)
(0.011034 -0.0830125 0)
(0.00620446 -0.105829 0)
(0.0039286 -0.137117 0)
(-0.00906374 -0.1812 0)
(0.00713952 -0.230458 0)
(0.00598139 0.108918 0)
(0.0156168 0.131106 0)
(0.0222671 0.129738 0)
(0.0276733 0.11986 0)
(0.0319481 0.104103 0)
(0.0349412 0.0867491 0)
(0.037018 0.0692686 0)
(0.0382975 0.0523493 0)
(0.0388612 0.0361465 0)
(0.038746 0.0204953 0)
(0.0379424 0.00508908 0)
(0.0364167 -0.0104164 0)
(0.0340664 -0.0262998 0)
(0.0308851 -0.0427656 0)
(0.0266257 -0.0598875 0)
(0.0214969 -0.0782035 0)
(0.0144255 -0.0999219 0)
(0.0101211 -0.130955 0)
(-0.00690452 -0.17778 0)
(0.0111536 -0.232672 0)
(0.00785823 0.0960526 0)
(0.0206261 0.122193 0)
(0.0299761 0.123093 0)
(0.0376567 0.114588 0)
(0.0439977 0.100239 0)
(0.0487358 0.0839449 0)
(0.0522097 0.0674018 0)
(0.0545399 0.0513237 0)
(0.0557943 0.0359158 0)
(0.056013 0.0210746 0)
(0.0551701 0.00654986 0)
(0.0532277 -0.00797807 0)
(0.0500201 -0.0227826 0)
(0.0455979 -0.03811 0)
(0.0395587 -0.0540821 0)
(0.0325074 -0.0712321 0)
(0.0229215 -0.0917362 0)
(0.016546 -0.122915 0)
(-0.00434432 -0.172961 0)
(0.0160971 -0.233268 0)
(0.00973522 0.0796454 0)
(0.0248511 0.109113 0)
(0.0366609 0.112642 0)
(0.0467101 0.10595 0)
(0.0553292 0.0935311 0)
(0.0621752 0.0788838 0)
(0.0673781 0.0638053 0)
(0.0710458 0.0490752 0)
(0.0732213 0.0349443 0)
(0.0739568 0.0213688 0)
(0.0732003 0.00817126 0)
(0.0709154 -0.00493088 0)
(0.0668517 -0.0181754 0)
(0.0612027 -0.031872 0)
(0.0532877 -0.046223 0)
(0.044235 -0.0619315 0)
(0.0318369 -0.0811353 0)
(0.0234268 -0.112692 0)
(-0.00184804 -0.16668 0)
(0.0218386 -0.233289 0)
(0.00990845 0.0601708 0)
(0.0273457 0.0950816 0)
(0.0412274 0.101507 0)
(0.0537371 0.0964112 0)
(0.0650983 0.0857486 0)
(0.0746051 0.0728588 0)
(0.0820061 0.0593957 0)
(0.0873679 0.0462025 0)
(0.0907504 0.0335961 0)
(0.0922351 0.0215692 0)
(0.0917474 0.0100403 0)
(0.0892845 -0.00132941 0)
(0.0844591 -0.0125522 0)
(0.0777488 -0.0241214 0)
(0.0679815 -0.0363243 0)
(0.0570378 -0.0502362 0)
(0.0416578 -0.067887 0)
(0.031193 -0.0999795 0)
(0.000474989 -0.158727 0)
(0.028794 -0.230119 0)
(0.00924878 0.0405511 0)
(0.0266061 0.07566 0)
(0.042634 0.0840219 0)
(0.0580859 0.0809822 0)
(0.0725918 0.0726963 0)
(0.0852258 0.0623926 0)
(0.0952712 0.0514649 0)
(0.102699 0.040656 0)
(0.107555 0.0303813 0)
(0.110054 0.0206349 0)
(0.109962 0.0114314 0)
(0.107685 0.0024327 0)
(0.10249 -0.00628824 0)
(0.0953185 -0.0152959 0)
(0.0841586 -0.0247687 0)
(0.0720404 -0.0363989 0)
(0.0538534 -0.051979 0)
(0.0412299 -0.0845988 0)
(0.004784 -0.14695 0)
(0.0385357 -0.218616 0)
(-0.000249625 0.0250549 0)
(0.0199929 0.0603437 0)
(0.0380665 0.0682161 0)
(0.0571369 0.0663714 0)
(0.0755225 0.0600965 0)
(0.0915542 0.0521742 0)
(0.104652 0.043634 0)
(0.114665 0.0351141 0)
(0.121527 0.0270913 0)
(0.125742 0.0195937 0)
(0.126842 0.0127299 0)
(0.125751 0.00621693 0)
(0.121182 0.000144065 0)
(0.115176 -0.00621856 0)
(0.104115 -0.0126071 0)
(0.0929199 -0.0213871 0)
(0.0729129 -0.0341249 0)
(0.0594608 -0.0653927 0)
(0.0185832 -0.126552 0)
(0.0556668 -0.189141 0)
(-0.0132403 0.0289443 0)
(-0.000354862 0.0311743 0)
(0.0261702 0.0345138 0)
(0.0522541 0.0354356 0)
(0.075723 0.0336897 0)
(0.0962436 0.0298987 0)
(0.11327 0.0255227 0)
(0.127022 0.0210736 0)
(0.137148 0.0168511 0)
(0.144479 0.0128414 0)
(0.148385 0.00928697 0)
(0.150201 0.00570973 0)
(0.148435 0.00273402 0)
(0.145435 -0.00111428 0)
(0.1372 -0.00409364 0)
(0.129726 -0.0103386 0)
(0.111454 -0.0186518 0)
(0.101601 -0.0446469 0)
(0.060469 -0.0908972 0)
(0.0896171 -0.134943 0)
(0.0438169 0.0377475 0)
(0.0492407 0.0299338 0)
(0.0705658 0.0274437 0)
(0.100526 0.0271178 0)
(0.127496 0.0261733 0)
(0.152323 0.0241823 0)
(0.174128 0.0216558 0)
(0.193461 0.019144 0)
(0.209316 0.0167157 0)
(0.222786 0.0145663 0)
(0.232938 0.0125485 0)
(0.241183 0.0108354 0)
(0.246356 0.00899884 0)
(0.250126 0.00747677 0)
(0.250255 0.00530535 0)
(0.248868 0.00306504 0)
(0.236715 0.00219723 0)
(0.224465 -0.00797728 0)
(0.174496 -0.0124285 0)
(0.162015 -0.0574617 0)
)
;

boundaryField
{
    movingWall
    {
        type            fixedValue;
        value           uniform (1 0 0);
    }
    fixedWalls
    {
        type            noSlip;
    }
    frontAndBack
    {
        type            empty;
    }
}


// ************************************************************************* //
