/*--------------------------------*- C++ -*----------------------------------*\
| =========                 |                                                 |
| \\      /  F ield         | OpenFOAM: The Open Source CFD Toolbox           |
|  \\    /   O peration     | Version:  5.x                                   |
|   \\  /    A nd           | Web:      www.OpenFOAM.org                      |
|    \\/     M anipulation  |                                                 |
\*---------------------------------------------------------------------------*/
FoamFile
{
    version     2.0;
    format      ascii;
    class       volScalarField;
    location    "14";
    object      epsilon;
}
// * * * * * * * * * * * * * * * * * * * * * * * * * * * * * * * * * * * * * //

dimensions      [0 2 -3 0 0 0 0];

internalField   nonuniform List<scalar> 
400
(
2.92758e-05
8.7949e-05
0.00033319
0.000662833
0.000885531
0.00105686
0.00119357
0.00132526
0.0014395
0.00155649
0.00166515
0.00178015
0.00189026
0.00195698
0.00198498
0.00197199
0.00180354
0.00137719
0.000838303
0.000582689
0.000126208
0.000330632
0.000823801
0.00109201
0.00114713
0.0011685
0.00117323
0.00121109
0.00125562
0.00134223
0.00145294
0.00160134
0.00177705
0.00198319
0.0022033
0.00239843
0.00248278
0.00243599
0.00190268
0.00123005
0.000397887
0.000944443
0.00115171
0.00117339
0.00113207
0.00111064
0.00109325
0.0011104
0.00116848
0.0012421
0.00133424
0.0014431
0.00157379
0.00173332
0.00192408
0.00214372
0.0023097
0.00236833
0.00215243
0.00161869
0.000840754
0.00122423
0.0012338
0.00113558
0.00105122
0.000997751
0.000980857
0.000980449
0.001007
0.00103821
0.00108831
0.00116086
0.00126911
0.00142272
0.00163787
0.00191712
0.00220379
0.00233023
0.00226535
0.0018689
0.00115134
0.00137641
0.00120642
0.00104175
0.000925493
0.000863078
0.000822869
0.000793851
0.000777622
0.000771146
0.000781756
0.000829913
0.000923234
0.00108097
0.00132798
0.0016833
0.00212868
0.00237792
0.00241013
0.00205544
0.00132031
0.00137203
0.00113349
0.000925508
0.000806647
0.000729155
0.000662639
0.000602077
0.000550325
0.000520767
0.00051085
0.000531951
0.000611563
0.000761634
0.00102285
0.00143849
0.00202419
0.00248875
0.00260521
0.00220597
0.00134801
0.00132593
0.00102963
0.000823118
0.000702356
0.000610433
0.000523922
0.000443116
0.000374922
0.000333062
0.000316336
0.000317742
0.000376612
0.000502759
0.000747217
0.00118639
0.0018905
0.00261302
0.00283962
0.00232677
0.00132891
0.00122648
0.000932635
0.000737602
0.000617491
0.000516831
0.000419885
0.000331842
0.000261475
0.00021827
0.000199649
0.000197001
0.000233895
0.000326641
0.000531075
0.000949758
0.00171644
0.00272447
0.00313288
0.00242706
0.00127987
0.00111222
0.000847773
0.000670467
0.000553614
0.000450061
0.000350895
0.000263901
0.000197747
0.0001589
0.000142644
0.000140565
0.000165339
0.000230283
0.000386853
0.000761299
0.00154937
0.00279384
0.00342837
0.0025023
0.00118777
0.00101074
0.000778026
0.000619057
0.000508209
0.000407359
0.000310823
0.000228097
0.000168046
0.000133349
0.000119091
0.000118772
0.000137058
0.000185677
0.000306123
0.000624546
0.00141183
0.00283801
0.00374318
0.00256325
0.00108865
0.000926836
0.000723623
0.000583257
0.000479558
0.000382926
0.000292931
0.000218628
0.000164323
0.000130768
0.000114488
0.000114401
0.000129001
0.000169358
0.000269432
0.000543397
0.0012927
0.00288233
0.00403557
0.00260214
0.000999561
0.000870293
0.000686177
0.000558609
0.000462293
0.000375915
0.00029448
0.000223773
0.000171548
0.000138701
0.000122426
0.000122628
0.000133318
0.000167117
0.000258136
0.000507564
0.00122216
0.00293897
0.00430149
0.00262903
0.000906228
0.000831043
0.000666785
0.000551734
0.000463163
0.000380449
0.000303783
0.000238645
0.000190082
0.000158439
0.000141462
0.000141952
0.000152053
0.00018338
0.000264929
0.000497631
0.00119403
0.00301177
0.00449247
0.00264199
0.00081535
0.000809478
0.000675631
0.000559837
0.000473231
0.000394915
0.000325041
0.000266534
0.000221229
0.000190557
0.00017188
0.000172286
0.000182328
0.00021421
0.000296648
0.00052194
0.00119287
0.0031184
0.00459124
0.00264906
0.000716812
0.000784832
0.000695366
0.000584376
0.00049977
0.000425009
0.000358983
0.000304155
0.000261482
0.000232451
0.000213163
0.000213892
0.000225014
0.000260045
0.000349226
0.000586572
0.00126549
0.0032812
0.0046278
0.00258557
0.000608552
0.000774496
0.000737256
0.000645731
0.000560727
0.00048659
0.000420174
0.000364346
0.000319991
0.000289953
0.000269115
0.000270558
0.000284538
0.000327224
0.000433091
0.000704298
0.0014143
0.00348604
0.00447468
0.0024789
0.000497535
0.000733253
0.00075653
0.000725389
0.000661063
0.000590195
0.000521258
0.000460791
0.000412042
0.000377596
0.000357666
0.00036197
0.000384309
0.00044749
0.000595774
0.000956221
0.00175534
0.00374904
0.00415423
0.00233907
0.000336442
0.000641382
0.000831935
0.000897997
0.00088212
0.000828029
0.000751167
0.00067988
0.00062507
0.00058471
0.000583261
0.000603797
0.000662264
0.000802592
0.00109133
0.00173266
0.00271834
0.00413821
0.00400507
0.00216976
0.000345626
0.000635002
0.00103145
0.00124822
0.00132859
0.00132857
0.00131055
0.00128915
0.0013005
0.0013451
0.00144359
0.00164243
0.00192148
0.00238245
0.00298297
0.00392201
0.00477406
0.00469781
0.00408714
0.00193129
0.000251182
0.000382878
0.000672325
0.0009587
0.00117682
0.00132474
0.00140856
0.00146133
0.00148675
0.00150429
0.0015112
0.00152248
0.00153162
0.00155456
0.00157059
0.00162879
0.00170078
0.00179224
0.00177446
0.00158112
)
;

boundaryField
{
    movingWall
    {
        Cmu             0.09;
        kappa           0.41;
        E               9.8;
        type            epsilonWallFunction;
        value           nonuniform List<scalar> 
20
(
0.000251182
0.000382878
0.000672325
0.0009587
0.00117682
0.00132474
0.00140856
0.00146133
0.00148675
0.00150429
0.0015112
0.00152248
0.00153162
0.00155456
0.00157059
0.00162879
0.00170078
0.00179224
0.00177446
0.00158112
)
;
    }
    fixedWalls
    {
        Cmu             0.09;
        kappa           0.41;
        E               9.8;
        type            epsilonWallFunction;
        value           nonuniform List<scalar> 
60
(
2.92758e-05
0.000126208
0.000397887
0.000840754
0.00115134
0.00132031
0.00134801
0.00132891
0.00127987
0.00118777
0.00108865
0.000999561
0.000906228
0.00081535
0.000716812
0.000608552
0.000497535
0.000336442
0.000345626
0.000251182
0.000582689
0.00123005
0.00161869
0.0018689
0.00205544
0.00220597
0.00232677
0.00242706
0.0025023
0.00256325
0.00260214
0.00262903
0.00264199
0.00264906
0.00258557
0.0024789
0.00233907
0.00216976
0.00193129
0.00158112
2.92758e-05
8.7949e-05
0.00033319
0.000662833
0.000885531
0.00105686
0.00119357
0.00132526
0.0014395
0.00155649
0.00166515
0.00178015
0.00189026
0.00195698
0.00198498
0.00197199
0.00180354
0.00137719
0.000838303
0.000582689
)
;
    }
    frontAndBack
    {
        type            empty;
    }
}


// ************************************************************************* //
