/*--------------------------------*- C++ -*----------------------------------*\
| =========                 |                                                 |
| \\      /  F ield         | OpenFOAM: The Open Source CFD Toolbox           |
|  \\    /   O peration     | Version:  5.x                                   |
|   \\  /    A nd           | Web:      www.OpenFOAM.org                      |
|    \\/     M anipulation  |                                                 |
\*---------------------------------------------------------------------------*/
FoamFile
{
    version     2.0;
    format      ascii;
    class       volScalarField;
    location    "14";
    object      k;
}
// * * * * * * * * * * * * * * * * * * * * * * * * * * * * * * * * * * * * * //

dimensions      [0 2 -2 0 0 0 0];

internalField   nonuniform List<scalar> 
400
(
9.14921e-06
2.74822e-05
0.000104117
0.00020714
0.000276746
0.000330297
0.000373025
0.000414184
0.000449888
0.000486454
0.000520414
0.000556355
0.00059077
0.000611621
0.000620372
0.000616314
0.000563672
0.000430427
0.000262004
0.000182108
3.94407e-05
0.000130419
0.000270487
0.000428296
0.000495421
0.000575174
0.000620456
0.000687133
0.000741506
0.000806513
0.000868153
0.000933111
0.000990999
0.00105425
0.00110322
0.00112538
0.0011263
0.000981606
0.000645211
0.000384439
0.000124343
0.000398469
0.000551905
0.000632496
0.000685413
0.000734227
0.000769463
0.000818557
0.000861083
0.000911967
0.000958949
0.00100739
0.00105431
0.0011057
0.0011528
0.00118098
0.00118943
0.00111762
0.000797326
0.00050591
0.000262727
0.000609021
0.000690338
0.000725104
0.0007508
0.000770473
0.000793696
0.000824837
0.000854728
0.000886895
0.00091593
0.000952376
0.000999193
0.00105801
0.00112753
0.00118719
0.00121163
0.00119645
0.000940952
0.000584112
0.000359792
0.000723315
0.000748325
0.00074769
0.00075107
0.000763136
0.0007753
0.00078156
0.000781276
0.000778286
0.000784197
0.000811531
0.000860811
0.000937031
0.0010435
0.00117064
0.00124469
0.00125999
0.00106362
0.000642417
0.000412597
0.000760096
0.000759345
0.000744104
0.000739467
0.000734928
0.000715641
0.000682103
0.00064965
0.000631715
0.000625967
0.00064115
0.000690932
0.00077856
0.000914968
0.0011
0.0012675
0.00132632
0.00118936
0.000689463
0.000421256
0.000753414
0.000753054
0.000730348
0.000709627
0.000678227
0.000632664
0.000578134
0.000529885
0.000499839
0.000488042
0.000492095
0.000536384
0.000623595
0.000772244
0.000998155
0.00127282
0.00139959
0.00130927
0.000727221
0.000415287
0.000734429
0.00073583
0.00070265
0.000670478
0.000623344
0.000561636
0.000495789
0.000440188
0.000404755
0.000389996
0.000389108
0.00042416
0.000501765
0.000644106
0.000884909
0.00123351
0.00146587
0.0014387
0.000758566
0.000399959
0.000696241
0.000704677
0.000672823
0.000634945
0.000579399
0.000510106
0.000440413
0.000383679
0.000347759
0.000332544
0.000331227
0.000358061
0.000421525
0.000548955
0.000784725
0.00116952
0.00152719
0.0015537
0.000782082
0.000371178
0.000661048
0.00067377
0.000645851
0.000606871
0.000548818
0.00047836
0.000409359
0.000354907
0.00032027
0.000305328
0.000305569
0.000327649
0.00038083
0.000489684
0.000707957
0.00110397
0.00157722
0.00166815
0.000801131
0.000340202
0.00061759
0.000640847
0.000621267
0.000585007
0.000529968
0.000462651
0.000399409
0.000348813
0.000314936
0.000297991
0.000298832
0.000317652
0.000364249
0.00046173
0.000662307
0.00105234
0.00161393
0.00176597
0.00081328
0.000312361
0.000578939
0.00061473
0.000603496
0.000571538
0.000521114
0.000462765
0.000403171
0.000354737
0.000321777
0.000304863
0.000305614
0.000319958
0.000361165
0.000452622
0.000642014
0.00102241
0.00164647
0.00185059
0.000821696
0.000283194
0.000531702
0.000586752
0.00058495
0.000564173
0.000522031
0.000468379
0.00041493
0.000370857
0.000339923
0.000323458
0.000324836
0.000338394
0.000376403
0.000459962
0.000637543
0.0010096
0.00167658
0.00189281
0.000825732
0.000254794
0.000497881
0.000570459
0.00057398
0.000562687
0.000529073
0.000482424
0.000437022
0.00039809
0.000369605
0.000353426
0.00035517
0.000368725
0.00040625
0.000488035
0.000657921
0.00100839
0.00170872
0.00190837
0.000827928
0.000224001
0.000450264
0.000546359
0.00057003
0.00056568
0.000545142
0.000505995
0.000466758
0.00043292
0.000407688
0.000392904
0.00039519
0.000409282
0.000447363
0.000529238
0.000698278
0.00103521
0.00173854
0.00190597
0.000808084
0.000190171
0.000416854
0.000533359
0.000574706
0.000578598
0.000569644
0.000545056
0.000511205
0.000480306
0.000456583
0.000441695
0.000444236
0.000459021
0.000498702
0.000583252
0.000760944
0.00108208
0.00175278
0.00181611
0.000774745
0.000155481
0.00036026
0.000501326
0.000583933
0.000609923
0.000607861
0.000594659
0.000567053
0.000538622
0.000515772
0.000502096
0.000505937
0.000523614
0.000569245
0.000663161
0.000865892
0.00118547
0.00175578
0.00168813
0.000731179
0.000105145
0.000301416
0.000508021
0.000629062
0.000703428
0.00071123
0.000703172
0.00068175
0.000650695
0.000625328
0.00061945
0.00062944
0.000659555
0.000731775
0.000859244
0.00113177
0.00145615
0.00175354
0.00154152
0.000678481
0.000108016
0.000315538
0.000542089
0.000682939
0.000765855
0.000805889
0.000822989
0.000838714
0.00085635
0.000887445
0.000933961
0.00101402
0.00111859
0.00128628
0.00148
0.00178585
0.00192633
0.00182339
0.00144826
0.00060473
7.85017e-05
0.000119658
0.000210112
0.000299608
0.000367775
0.000414006
0.000440201
0.000456698
0.000464643
0.000470143
0.000472303
0.000475819
0.000479118
0.000485304
0.000492217
0.000508412
0.000531354
0.000560166
0.000554564
0.000494137
)
;

boundaryField
{
    movingWall
    {
        type            kqRWallFunction;
        value           nonuniform List<scalar> 
20
(
7.85017e-05
0.000119658
0.000210112
0.000299608
0.000367775
0.000414006
0.000440201
0.000456698
0.000464643
0.000470143
0.000472303
0.000475819
0.000479118
0.000485304
0.000492217
0.000508412
0.000531354
0.000560166
0.000554564
0.000494137
)
;
    }
    fixedWalls
    {
        type            kqRWallFunction;
        value           nonuniform List<scalar> 
60
(
9.14921e-06
3.94407e-05
0.000124343
0.000262727
0.000359792
0.000412597
0.000421256
0.000415287
0.000399959
0.000371178
0.000340202
0.000312361
0.000283194
0.000254794
0.000224001
0.000190171
0.000155481
0.000105145
0.000108016
7.85017e-05
0.000182108
0.000384439
0.00050591
0.000584112
0.000642417
0.000689463
0.000727221
0.000758566
0.000782082
0.000801131
0.00081328
0.000821696
0.000825732
0.000827928
0.000808084
0.000774745
0.000731179
0.000678481
0.00060473
0.000494137
9.14921e-06
2.74822e-05
0.000104117
0.00020714
0.000276746
0.000330297
0.000373025
0.000414184
0.000449888
0.000486454
0.000520414
0.000556355
0.00059077
0.000611621
0.000620372
0.000616314
0.000563672
0.000430427
0.000262004
0.000182108
)
;
    }
    frontAndBack
    {
        type            empty;
    }
}


// ************************************************************************* //
