/*--------------------------------*- C++ -*----------------------------------*\
| =========                 |                                                 |
| \\      /  F ield         | OpenFOAM: The Open Source CFD Toolbox           |
|  \\    /   O peration     | Version:  5.x                                   |
|   \\  /    A nd           | Web:      www.OpenFOAM.org                      |
|    \\/     M anipulation  |                                                 |
\*---------------------------------------------------------------------------*/
FoamFile
{
    version     2.0;
    format      ascii;
    class       volScalarField;
    location    "14";
    object      nut;
}
// * * * * * * * * * * * * * * * * * * * * * * * * * * * * * * * * * * * * * //

dimensions      [0 2 -1 0 0 0 0];

internalField   nonuniform List<scalar> 
400
(
2.57337e-07
7.72886e-07
2.92816e-06
5.82594e-06
7.784e-06
9.29034e-06
1.04923e-05
1.165e-05
1.26544e-05
1.36829e-05
1.46382e-05
1.56492e-05
1.66172e-05
1.72037e-05
1.74498e-05
1.73357e-05
1.58551e-05
1.21074e-05
7.36981e-06
5.12229e-06
1.10929e-06
4.63002e-06
7.99306e-06
1.51183e-05
1.92566e-05
2.54807e-05
2.95311e-05
3.50873e-05
3.94108e-05
4.36151e-05
4.66862e-05
4.89355e-05
4.97381e-05
5.04388e-05
4.97159e-05
4.75241e-05
4.59845e-05
3.55993e-05
1.96916e-05
1.08137e-05
3.49723e-06
1.51306e-05
2.38028e-05
3.06843e-05
3.73484e-05
4.36849e-05
4.87414e-05
5.43076e-05
5.71101e-05
6.02621e-05
6.20298e-05
6.32903e-05
6.3567e-05
6.34801e-05
6.21627e-05
5.85539e-05
5.51275e-05
4.74663e-05
2.65819e-05
1.42307e-05
7.38894e-06
2.72675e-05
3.47633e-05
4.16701e-05
4.82611e-05
5.35469e-05
5.78023e-05
6.24531e-05
6.52935e-05
6.81868e-05
6.93766e-05
7.03201e-05
7.08012e-05
7.08121e-05
6.98577e-05
6.61662e-05
5.99531e-05
5.52883e-05
3.51757e-05
1.64304e-05
1.01191e-05
3.42096e-05
4.17758e-05
4.82971e-05
5.48568e-05
6.07291e-05
6.57433e-05
6.92514e-05
7.06452e-05
7.06943e-05
7.0798e-05
7.14201e-05
7.22347e-05
7.31031e-05
7.37959e-05
7.32698e-05
6.55015e-05
6.00871e-05
4.22451e-05
1.80705e-05
1.16043e-05
3.7898e-05
4.57828e-05
5.38431e-05
6.10094e-05
6.66673e-05
6.95595e-05
6.9549e-05
6.90211e-05
6.8967e-05
6.90323e-05
6.95489e-05
7.0254e-05
7.16276e-05
7.36619e-05
7.57044e-05
7.14307e-05
6.36146e-05
4.88682e-05
1.93939e-05
1.18479e-05
3.85292e-05
4.95696e-05
5.83231e-05
6.45277e-05
6.78194e-05
6.87579e-05
6.78863e-05
6.74008e-05
6.75115e-05
6.77653e-05
6.85907e-05
6.87545e-05
6.96127e-05
7.18298e-05
7.55806e-05
7.71262e-05
6.74686e-05
5.43299e-05
2.0456e-05
1.168e-05
3.95807e-05
5.225e-05
6.0242e-05
6.55211e-05
6.76626e-05
6.76116e-05
6.66661e-05
6.66943e-05
6.75512e-05
6.85638e-05
6.91694e-05
6.92279e-05
6.93703e-05
7.03073e-05
7.4204e-05
7.97816e-05
7.09829e-05
5.9462e-05
2.13377e-05
1.12489e-05
3.92257e-05
5.27161e-05
6.07668e-05
6.55402e-05
6.71315e-05
6.674e-05
6.61489e-05
6.69989e-05
6.84975e-05
6.97732e-05
7.02451e-05
6.97881e-05
6.94428e-05
7.01083e-05
7.27985e-05
7.94522e-05
7.51321e-05
6.3371e-05
2.19992e-05
1.04394e-05
3.89108e-05
5.25136e-05
6.06425e-05
6.52218e-05
6.65461e-05
6.6258e-05
6.612e-05
6.74597e-05
6.92286e-05
7.04527e-05
7.07533e-05
7.04944e-05
7.02988e-05
7.04983e-05
7.22257e-05
7.76915e-05
7.88888e-05
6.69074e-05
2.2535e-05
9.56815e-06
3.70373e-05
5.10786e-05
5.95579e-05
6.42279e-05
6.60125e-05
6.57634e-05
6.56706e-05
6.66391e-05
6.82628e-05
6.98052e-05
7.02529e-05
7.03967e-05
7.05073e-05
7.12149e-05
7.26513e-05
7.70996e-05
8.13336e-05
6.9551e-05
2.28767e-05
8.7851e-06
3.46611e-05
4.95649e-05
5.86791e-05
6.35938e-05
6.50159e-05
6.54498e-05
6.53754e-05
6.60189e-05
6.71852e-05
6.83246e-05
6.85486e-05
6.911e-05
7.02477e-05
7.14274e-05
7.3087e-05
7.69782e-05
8.30147e-05
7.16546e-05
2.31137e-05
7.96475e-06
3.06165e-05
4.64692e-05
5.58148e-05
6.18491e-05
6.44673e-05
6.4994e-05
6.49291e-05
6.51197e-05
6.56358e-05
6.65641e-05
6.69002e-05
6.77788e-05
6.95339e-05
7.18715e-05
7.35112e-05
7.68299e-05
8.39984e-05
7.17746e-05
2.32268e-05
7.166e-06
2.75606e-05
4.33493e-05
5.29632e-05
6.02146e-05
6.37927e-05
6.4441e-05
6.44904e-05
6.44707e-05
6.45197e-05
6.54055e-05
6.58968e-05
6.71111e-05
6.93408e-05
7.22609e-05
7.46397e-05
7.672e-05
8.42664e-05
7.139e-05
2.32883e-05
6.29996e-06
2.32488e-05
3.86355e-05
5.00432e-05
5.76253e-05
6.29308e-05
6.41892e-05
6.44662e-05
6.45082e-05
6.43529e-05
6.51783e-05
6.57143e-05
6.70004e-05
6.9265e-05
7.21834e-05
7.48131e-05
7.62148e-05
8.29049e-05
7.06481e-05
2.273e-05
5.34852e-06
2.01925e-05
3.47266e-05
4.60344e-05
5.37335e-05
6.00187e-05
6.36349e-05
6.45535e-05
6.48844e-05
6.47074e-05
6.52453e-05
6.56461e-05
6.66448e-05
6.84037e-05
7.0693e-05
7.39931e-05
7.45111e-05
7.93164e-05
6.63383e-05
2.17922e-05
4.37296e-06
1.59301e-05
2.9899e-05
4.23056e-05
5.06465e-05
5.6345e-05
6.10556e-05
6.28038e-05
6.33679e-05
6.3406e-05
6.34364e-05
6.36449e-05
6.42073e-05
6.51716e-05
6.64354e-05
7.05686e-05
7.20546e-05
7.4005e-05
6.17398e-05
2.05706e-05
2.95739e-06
1.27484e-05
2.79201e-05
3.96602e-05
5.04841e-05
5.49815e-05
5.92419e-05
6.15263e-05
6.09633e-05
6.01892e-05
5.92097e-05
5.90556e-05
5.91171e-05
6.00485e-05
6.08862e-05
6.65341e-05
7.0202e-05
6.68746e-05
5.33987e-05
1.90944e-05
3.03816e-06
1.41114e-05
2.56411e-05
3.3629e-05
3.97324e-05
4.39955e-05
4.65132e-05
4.91096e-05
5.07498e-05
5.2695e-05
5.43821e-05
5.63446e-05
5.86071e-05
6.25018e-05
6.60872e-05
7.31853e-05
6.99542e-05
6.3695e-05
4.61865e-05
1.70419e-05
2.20806e-06
3.36561e-06
5.90971e-06
8.42688e-06
1.03442e-05
1.16446e-05
1.23814e-05
1.28455e-05
1.3069e-05
1.32242e-05
1.3285e-05
1.33836e-05
1.34889e-05
1.36353e-05
1.38833e-05
1.42827e-05
1.49404e-05
1.57572e-05
1.55984e-05
1.38987e-05
)
;

boundaryField
{
    movingWall
    {
        type            nutkWallFunction;
        Cmu             0.09;
        kappa           0.41;
        E               9.8;
        value           uniform 0;
    }
    fixedWalls
    {
        type            nutkWallFunction;
        Cmu             0.09;
        kappa           0.41;
        E               9.8;
        value           uniform 0;
    }
    frontAndBack
    {
        type            empty;
    }
}


// ************************************************************************* //
