/*--------------------------------*- C++ -*----------------------------------*\
| =========                 |                                                 |
| \\      /  F ield         | OpenFOAM: The Open Source CFD Toolbox           |
|  \\    /   O peration     | Version:  5.x                                   |
|   \\  /    A nd           | Web:      www.OpenFOAM.org                      |
|    \\/     M anipulation  |                                                 |
\*---------------------------------------------------------------------------*/
FoamFile
{
    version     2.0;
    format      ascii;
    class       volScalarField;
    location    "14";
    object      p;
}
// * * * * * * * * * * * * * * * * * * * * * * * * * * * * * * * * * * * * * //

dimensions      [0 2 -2 0 0 0 0];

internalField   nonuniform List<scalar> 
400
(
-5.01508e-09
-8.484e-05
-0.000150038
-0.00041526
-0.00128277
-0.00272335
-0.00440421
-0.00601731
-0.00732532
-0.00819153
-0.00850173
-0.00814934
-0.00712973
-0.0054411
-0.00309164
-0.000262031
0.00266198
0.00508577
0.00649878
0.00681387
0.000100622
-1.54903e-06
-0.000240784
-0.000869485
-0.00199508
-0.00352414
-0.00519694
-0.00676814
-0.00804939
-0.00891515
-0.00926033
-0.0090179
-0.00813091
-0.00657501
-0.00439016
-0.00169681
0.00119062
0.0037666
0.0055032
0.00622543
0.000268907
-6.79526e-05
-0.000703662
-0.00176819
-0.00323073
-0.00490264
-0.00658432
-0.00810753
-0.00934097
-0.010156
-0.010475
-0.0102623
-0.00948821
-0.00814165
-0.00624064
-0.00386253
-0.00119635
0.00141622
0.0034936
0.00456074
2.9877e-05
-0.000538959
-0.00159565
-0.003083
-0.00482509
-0.00661539
-0.00829437
-0.00973982
-0.0108521
-0.0115654
-0.011842
-0.0116559
-0.0109867
-0.00983492
-0.0082157
-0.00617836
-0.00382874
-0.00137779
0.000779576
0.00197225
-0.000788722
-0.00155853
-0.00291754
-0.00465553
-0.00652826
-0.00833832
-0.00995431
-0.011289
-0.0122866
-0.012915
-0.0131541
-0.0129907
-0.0124187
-0.0114444
-0.0100835
-0.00836974
-0.00636448
-0.00420049
-0.0021748
-0.000997546
-0.00215163
-0.00302169
-0.00449668
-0.00629213
-0.00815615
-0.00990162
-0.011417
-0.0126399
-0.0135391
-0.0140975
-0.014306
-0.0141623
-0.0136709
-0.0128445
-0.0117023
-0.0102709
-0.00859291
-0.00676444
-0.00505
-0.00392091
-0.00377307
-0.00465279
-0.00609376
-0.00782197
-0.0095938
-0.0112307
-0.0126335
-0.0137532
-0.0145696
-0.0150732
-0.0152613
-0.015137
-0.0147101
-0.0139988
-0.0130271
-0.0118225
-0.0104241
-0.00891239
-0.0075294
-0.00650396
-0.00531636
-0.00615331
-0.00749184
-0.0091058
-0.0107584
-0.0122796
-0.013578
-0.0146112
-0.0153634
-0.0158283
-0.0160054
-0.0158993
-0.0155218
-0.0148944
-0.0140472
-0.0130132
-0.0118333
-0.0105844
-0.00949429
-0.0085686
-0.00653368
-0.00731871
-0.0085421
-0.0100453
-0.0115903
-0.0130147
-0.0142324
-0.0152033
-0.0159122
-0.0163529
-0.0165251
-0.016433
-0.0160889
-0.015516
-0.0147502
-0.0138338
-0.0128131
-0.0117527
-0.0108846
-0.0100374
-0.00731716
-0.00802558
-0.0091567
-0.0105845
-0.0120532
-0.013414
-0.0145837
-0.0155206
-0.0162072
-0.0166365
-0.0168072
-0.0167229
-0.0163954
-0.0158492
-0.0151251
-0.0142758
-0.0133588
-0.0124096
-0.0117117
-0.0108577
-0.00761783
-0.00824623
-0.00932078
-0.0107033
-0.0121323
-0.0134675
-0.0146239
-0.0155553
-0.0162405
-0.0166703
-0.0168419
-0.0167581
-0.0164307
-0.0158849
-0.015166
-0.0143354
-0.0134654
-0.0125441
-0.0120056
-0.0110098
-0.0074309
-0.00801151
-0.00904928
-0.0104095
-0.0118315
-0.0131741
-0.0143489
-0.0153026
-0.0160073
-0.0164498
-0.0166252
-0.016535
-0.0161913
-0.0156209
-0.0148737
-0.014019
-0.0131327
-0.0121905
-0.0118113
-0.0105087
-0.00684328
-0.00739614
-0.00840452
-0.00973645
-0.01117
-0.0125442
-0.0137642
-0.0147656
-0.0155104
-0.0159787
-0.0161622
-0.0160602
-0.0156857
-0.0150675
-0.0142606
-0.0133389
-0.0123945
-0.011437
-0.0110654
-0.00946587
-0.00598339
-0.00650048
-0.00745974
-0.00874056
-0.0101742
-0.0115926
-0.0128806
-0.0139546
-0.0147612
-0.015271
-0.0154699
-0.0153545
-0.0149375
-0.0142506
-0.0133553
-0.0123307
-0.011297
-0.0102838
-0.00981905
-0.00802139
-0.00501114
-0.00545663
-0.00630567
-0.00749029
-0.00889722
-0.0103618
-0.0117352
-0.0129035
-0.0137929
-0.014361
-0.014587
-0.0144625
-0.0139972
-0.013226
-0.012217
-0.0110525
-0.00988029
-0.00873451
-0.00813895
-0.00617299
-0.00412001
-0.00440485
-0.00502406
-0.00603835
-0.00739136
-0.00890328
-0.0103772
-0.0116606
-0.0126554
-0.0133029
-0.0135743
-0.0134577
-0.0129525
-0.0120938
-0.0109516
-0.00960189
-0.00820953
-0.00680484
-0.00593702
-0.00348706
-0.00349429
-0.00346579
-0.00372433
-0.00450456
-0.0057856
-0.00734326
-0.00892335
-0.0103342
-0.0114528
-0.0122008
-0.0125374
-0.0124418
-0.0119329
-0.0110032
-0.00971977
-0.0081281
-0.00638474
-0.00446693
-0.00278583
0.0011789
-0.00318275
-0.00264271
-0.00245426
-0.00299037
-0.00420211
-0.00579874
-0.00748402
-0.00903353
-0.0102971
-0.0111745
-0.011613
-0.0115811
-0.0110851
-0.0101141
-0.00870081
-0.006806
-0.00452159
-0.00159249
0.00203728
0.00930527
-0.00313267
-0.00190508
-0.00137747
-0.00176399
-0.00292447
-0.00454021
-0.00630549
-0.00797556
-0.00937281
-0.0103791
-0.0109274
-0.0109818
-0.0105307
-0.00954401
-0.00802619
-0.00579637
-0.00271644
0.00195069
0.00906728
0.021181
-0.00352699
-0.000732753
2.57065e-05
-0.000505563
-0.00171774
-0.00337121
-0.00521286
-0.00699102
-0.00850687
-0.009626
-0.0102681
-0.0103864
-0.00996657
-0.00894982
-0.00743531
-0.00487897
-0.000869322
0.00623739
0.0178161
0.0334664
)
;

boundaryField
{
    movingWall
    {
        type            zeroGradient;
    }
    fixedWalls
    {
        type            zeroGradient;
    }
    frontAndBack
    {
        type            empty;
    }
}


// ************************************************************************* //
