/*--------------------------------*- C++ -*----------------------------------*\
| =========                 |                                                 |
| \\      /  F ield         | OpenFOAM: The Open Source CFD Toolbox           |
|  \\    /   O peration     | Version:  5.x                                   |
|   \\  /    A nd           | Web:      www.OpenFOAM.org                      |
|    \\/     M anipulation  |                                                 |
\*---------------------------------------------------------------------------*/
FoamFile
{
    version     2.0;
    format      ascii;
    class       surfaceScalarField;
    location    "14";
    object      phi;
}
// * * * * * * * * * * * * * * * * * * * * * * * * * * * * * * * * * * * * * //

dimensions      [0 3 -1 0 0 0 0];

internalField   nonuniform List<scalar> 
760
(
1.42759e-07
-1.42757e-07
-1.13569e-07
2.56328e-07
-9.20749e-07
8.07181e-07
-2.18898e-06
1.26823e-06
-3.57723e-06
1.38825e-06
-4.82883e-06
1.25161e-06
-5.89208e-06
1.06324e-06
-6.738e-06
8.45922e-07
-7.36034e-06
6.22337e-07
-7.76297e-06
4.02635e-07
-7.95772e-06
1.94749e-07
-7.93444e-06
-2.32871e-08
-7.71436e-06
-2.2008e-07
-7.28444e-06
-4.29916e-07
-6.58376e-06
-7.00684e-07
-5.58861e-06
-9.95144e-07
-4.24804e-06
-1.34057e-06
-2.62233e-06
-1.62572e-06
-9.54645e-07
-1.66768e-06
-9.54645e-07
-4.05022e-07
2.62265e-07
-1.39163e-06
1.24294e-06
-2.72742e-06
2.14297e-06
-3.97655e-06
2.51736e-06
-5.04154e-06
2.45324e-06
-5.98635e-06
2.19642e-06
-6.76552e-06
1.84241e-06
-7.3716e-06
1.45201e-06
-7.81737e-06
1.0681e-06
-8.10544e-06
6.90709e-07
-8.21872e-06
3.08026e-07
-8.15905e-06
-8.29568e-08
-7.91891e-06
-4.6022e-07
-7.47933e-06
-8.69495e-07
-6.83968e-06
-1.34033e-06
-5.95812e-06
-1.8767e-06
-4.80568e-06
-2.49301e-06
-3.32762e-06
-3.10378e-06
-1.59325e-06
-3.40204e-06
-2.5479e-06
-1.00356e-06
1.26583e-06
-2.31184e-06
2.55121e-06
-3.47567e-06
3.3068e-06
-4.45563e-06
3.49732e-06
-5.28442e-06
3.28202e-06
-5.97132e-06
2.88332e-06
-6.51648e-06
2.38758e-06
-6.91384e-06
1.84937e-06
-7.17067e-06
1.32492e-06
-7.29343e-06
8.13469e-07
-7.29978e-06
3.14382e-07
-7.19933e-06
-1.83411e-07
-6.97188e-06
-6.87674e-07
-6.59962e-06
-1.24175e-06
-6.07239e-06
-1.86756e-06
-5.36301e-06
-2.58608e-06
-4.45064e-06
-3.40538e-06
-3.28273e-06
-4.2717e-06
-1.79484e-06
-4.88993e-06
-4.34274e-06
-1.2363e-06
2.50213e-06
-2.44488e-06
3.75979e-06
-3.43496e-06
4.29689e-06
-4.21544e-06
4.2778e-06
-4.83761e-06
3.9042e-06
-5.31753e-06
3.36324e-06
-5.6686e-06
2.73865e-06
-5.91503e-06
2.09579e-06
-6.06541e-06
1.4753e-06
-6.12702e-06
8.75083e-07
-6.10268e-06
2.90035e-07
-5.99171e-06
-2.94373e-07
-5.78294e-06
-8.96444e-07
-5.47464e-06
-1.55005e-06
-5.05642e-06
-2.28578e-06
-4.50768e-06
-3.13482e-06
-3.80233e-06
-4.11073e-06
-2.89513e-06
-5.17889e-06
-1.6492e-06
-6.13585e-06
-5.99195e-06
-1.17121e-06
3.67333e-06
-2.20395e-06
4.79254e-06
-3.01787e-06
5.1108e-06
-3.64106e-06
4.90099e-06
-4.11216e-06
4.3753e-06
-4.4551e-06
3.70618e-06
-4.69568e-06
2.97923e-06
-4.85726e-06
2.25737e-06
-4.94637e-06
1.56442e-06
-4.96753e-06
8.96237e-07
-4.92129e-06
2.43803e-07
-4.80694e-06
-4.08721e-07
-4.62134e-06
-1.08205e-06
-4.36593e-06
-1.80546e-06
-4.03797e-06
-2.61374e-06
-3.6249e-06
-3.5479e-06
-3.0933e-06
-4.64232e-06
-2.38262e-06
-5.88958e-06
-1.39028e-06
-7.12819e-06
-7.38223e-06
-9.65592e-07
4.63892e-06
-1.80163e-06
5.62858e-06
-2.45499e-06
5.76415e-06
-2.94446e-06
5.39046e-06
-3.30242e-06
4.73325e-06
-3.55546e-06
3.95922e-06
-3.73018e-06
3.15395e-06
-3.84324e-06
2.37044e-06
-3.90015e-06
1.62132e-06
-3.90378e-06
8.99874e-07
-3.85411e-06
1.94131e-07
-3.75006e-06
-5.12777e-07
-3.59103e-06
-1.24108e-06
-3.38007e-06
-2.01641e-06
-3.12097e-06
-2.87284e-06
-2.8122e-06
-3.85667e-06
-2.43408e-06
-5.02044e-06
-1.92059e-06
-6.40307e-06
-1.13512e-06
-7.91365e-06
-8.51735e-06
-7.3286e-07
5.37178e-06
-1.36185e-06
6.25757e-06
-1.85844e-06
6.26074e-06
-2.22723e-06
5.75925e-06
-2.49565e-06
5.00167e-06
-2.68591e-06
4.14948e-06
-2.81829e-06
3.28633e-06
-2.90399e-06
2.45614e-06
-2.94762e-06
1.66495e-06
-2.95088e-06
9.0314e-07
-2.91242e-06
1.55667e-07
-2.8301e-06
-5.95099e-07
-2.70307e-06
-1.3681e-06
-2.53494e-06
-2.18455e-06
-2.33348e-06
-3.0743e-06
-2.10414e-06
-4.08601e-06
-1.83731e-06
-5.28727e-06
-1.4793e-06
-6.76109e-06
-9.32498e-07
-8.46045e-06
-9.44985e-06
-4.83173e-07
5.85496e-06
-9.26652e-07
6.70105e-06
-1.27371e-06
6.6078e-06
-1.53359e-06
6.01913e-06
-1.72632e-06
5.1944e-06
-1.86681e-06
4.28998e-06
-1.968e-06
3.38751e-06
-2.03655e-06
2.52469e-06
-2.07555e-06
1.70395e-06
-2.08547e-06
9.13066e-07
-2.06424e-06
1.34432e-07
-2.00925e-06
-6.50083e-07
-1.91945e-06
-1.45791e-06
-1.79811e-06
-2.30589e-06
-1.65481e-06
-3.21761e-06
-1.50021e-06
-4.2406e-06
-1.3306e-06
-5.45688e-06
-1.10154e-06
-6.99016e-06
-7.24085e-07
-8.8379e-06
-1.01739e-05
-2.62176e-07
6.11713e-06
-5.17758e-07
6.95663e-06
-7.16982e-07
6.80703e-06
-8.75955e-07
6.1781e-06
-9.99538e-07
5.31798e-06
-1.09476e-06
4.3852e-06
-1.16787e-06
3.46061e-06
-1.22147e-06
2.5783e-06
-1.25688e-06
1.73935e-06
-1.27384e-06
9.30033e-07
-1.27065e-06
1.31234e-07
-1.24506e-06
-6.7567e-07
-1.1962e-06
-1.50677e-06
-1.12683e-06
-2.37525e-06
-1.04642e-06
-3.29803e-06
-9.68086e-07
-4.31893e-06
-8.91954e-07
-5.53301e-06
-7.8469e-07
-7.09742e-06
-5.68479e-07
-9.05411e-06
-1.07424e-05
-4.73545e-08
6.16449e-06
-1.29541e-07
7.03882e-06
-1.96305e-07
6.87379e-06
-2.55098e-07
6.2369e-06
-3.07665e-07
5.37055e-06
-3.55861e-07
4.4334e-06
-3.9899e-07
3.50374e-06
-4.35658e-07
2.61497e-06
-4.65316e-07
1.76901e-06
-4.87532e-07
9.52249e-07
-5.01576e-07
1.45277e-07
-5.0637e-07
-6.70876e-07
-5.01767e-07
-1.51137e-06
-4.90009e-07
-2.38701e-06
-4.79284e-07
-3.30875e-06
-4.82641e-07
-4.31557e-06
-5.04994e-07
-5.51066e-06
-5.08663e-07
-7.09375e-06
-4.21683e-07
-9.14109e-06
-1.11641e-05
1.70385e-07
5.9941e-06
2.5873e-07
6.95048e-06
3.24604e-07
6.80792e-06
3.53072e-07
6.20843e-06
3.67237e-07
5.35639e-06
3.67341e-07
4.4333e-06
3.57494e-07
3.51359e-06
3.41249e-07
2.63121e-06
3.20227e-07
1.79003e-06
2.94733e-07
9.77744e-07
2.64376e-07
1.75634e-07
2.28771e-07
-6.35271e-07
1.87085e-07
-1.46969e-06
1.37401e-07
-2.33732e-06
7.31497e-08
-3.2445e-06
-1.89415e-08
-4.22348e-06
-1.40285e-07
-5.38932e-06
-2.64162e-07
-6.96987e-06
-3.11449e-07
-9.09381e-06
-1.14755e-05
3.79719e-07
5.61438e-06
6.2893e-07
6.70126e-06
8.19072e-07
6.61777e-06
9.45237e-07
6.08226e-06
1.03266e-06
5.26897e-06
1.08779e-06
4.37816e-06
1.11729e-06
3.48409e-06
1.1263e-06
2.62219e-06
1.11734e-06
1.799e-06
1.09057e-06
1.00451e-06
1.04441e-06
2.21802e-07
9.76913e-07
-5.67778e-07
8.85632e-07
-1.3784e-06
7.68479e-07
-2.22017e-06
6.21392e-07
-3.09741e-06
4.36497e-07
-4.03859e-06
2.00556e-07
-5.15338e-06
-6.60432e-08
-6.70327e-06
-1.69762e-07
-8.99009e-06
-1.16453e-05
5.80285e-07
5.0341e-06
9.88843e-07
6.29271e-06
1.29889e-06
6.30773e-06
1.52606e-06
5.85509e-06
1.69341e-06
5.10161e-06
1.81264e-06
4.25893e-06
1.89009e-06
3.40665e-06
1.93135e-06
2.58093e-06
1.93946e-06
1.79089e-06
1.91451e-06
1.02946e-06
1.8538e-06
2.82506e-07
1.75423e-06
-4.68209e-07
1.61182e-06
-1.23599e-06
1.42368e-06
-2.03203e-06
1.18747e-06
-2.8612e-06
8.97789e-07
-3.7489e-06
5.44574e-07
-4.80016e-06
1.89545e-07
-6.34825e-06
-1.33439e-08
-8.7872e-06
-1.16587e-05
7.49797e-07
4.2843e-06
1.30851e-06
5.734e-06
1.73683e-06
5.87941e-06
2.08184e-06
5.51008e-06
2.34501e-06
4.83844e-06
2.54206e-06
4.06189e-06
2.67965e-06
3.26906e-06
2.76313e-06
2.49745e-06
2.79574e-06
1.75827e-06
2.77747e-06
1.04773e-06
2.70458e-06
3.55397e-07
2.57258e-06
-3.36211e-07
2.37719e-06
-1.04059e-06
2.11397e-06
-1.76882e-06
1.78156e-06
-2.5288e-06
1.38231e-06
-3.34965e-06
9.1721e-07
-4.33506e-06
4.62247e-07
-5.89328e-06
1.53276e-07
-8.47823e-06
-1.15054e-05
8.93736e-07
3.39056e-06
1.57047e-06
5.05727e-06
2.12192e-06
5.32796e-06
2.59451e-06
5.03749e-06
2.97359e-06
4.45936e-06
3.26515e-06
3.77033e-06
3.47731e-06
3.0569e-06
3.61569e-06
2.35907e-06
3.68298e-06
1.69099e-06
3.67927e-06
1.05144e-06
3.59944e-06
4.35226e-07
3.43607e-06
-1.72844e-07
3.18791e-06
-7.92431e-07
2.84768e-06
-1.42859e-06
2.41394e-06
-2.09505e-06
1.89819e-06
-2.8339e-06
1.30798e-06
-3.74486e-06
7.26351e-07
-5.31165e-06
3.01072e-07
-8.05295e-06
-1.12043e-05
9.14166e-07
2.4764e-06
1.70112e-06
4.27031e-06
2.40006e-06
4.62902e-06
3.02198e-06
4.41557e-06
3.54224e-06
3.9391e-06
3.95232e-06
3.36026e-06
4.25851e-06
2.75071e-06
4.46796e-06
2.14961e-06
4.58261e-06
1.57634e-06
4.60339e-06
1.03066e-06
4.52718e-06
5.11437e-07
4.33796e-06
1.63713e-08
4.0433e-06
-4.97775e-07
3.6313e-06
-1.01658e-06
3.09891e-06
-1.56267e-06
2.46517e-06
-2.20016e-06
1.73903e-06
-3.01872e-06
1.01766e-06
-4.59029e-06
4.62995e-07
-7.49828e-06
-1.07413e-05
8.11169e-07
1.66523e-06
1.66215e-06
3.41933e-06
2.53595e-06
3.75522e-06
3.33249e-06
3.61903e-06
4.01147e-06
3.26012e-06
4.56149e-06
2.81023e-06
4.98223e-06
2.32997e-06
5.27929e-06
1.85255e-06
5.45474e-06
1.4009e-06
5.51015e-06
9.75242e-07
5.44213e-06
5.79464e-07
5.26061e-06
1.97893e-07
4.93618e-06
-1.73352e-07
4.4817e-06
-5.62102e-07
3.87923e-06
-9.60197e-07
3.15507e-06
-1.476e-06
2.30761e-06
-2.17126e-06
1.43996e-06
-3.72264e-06
6.73718e-07
-6.73204e-06
-1.00676e-05
3.76265e-07
1.28897e-06
1.35601e-06
2.43958e-06
2.40695e-06
2.70428e-06
3.3978e-06
2.62818e-06
4.25402e-06
2.40389e-06
4.96455e-06
2.0997e-06
5.52503e-06
1.76949e-06
5.93586e-06
1.44172e-06
6.20216e-06
1.1346e-06
6.32973e-06
8.47678e-07
6.32065e-06
5.88545e-07
6.18194e-06
3.366e-07
5.90732e-06
1.0127e-07
5.4934e-06
-1.48189e-07
4.90985e-06
-3.7664e-07
4.19797e-06
-7.64123e-07
3.31319e-06
-1.28648e-06
2.33567e-06
-2.74511e-06
1.14738e-06
-5.54375e-06
-8.92021e-06
-5.3742e-07
1.82639e-06
5.99962e-07
1.3022e-06
1.99948e-06
1.30476e-06
3.27459e-06
1.35308e-06
4.3732e-06
1.30528e-06
5.30072e-06
1.17219e-06
6.05596e-06
1.01425e-06
6.63947e-06
8.58207e-07
7.06324e-06
7.10836e-07
7.33584e-06
5.75078e-07
7.47231e-06
4.52072e-07
7.47518e-06
3.33731e-07
7.35063e-06
2.25822e-07
7.09501e-06
1.07432e-07
6.70312e-06
1.52462e-08
6.17334e-06
-2.3434e-07
5.45795e-06
-5.71091e-07
4.47592e-06
-1.76309e-06
2.49182e-06
-3.55965e-06
-6.42839e-06
1.82639e-06
3.12858e-06
4.43334e-06
5.78642e-06
7.0917e-06
8.26389e-06
9.27814e-06
1.01363e-05
1.08472e-05
1.14223e-05
1.18743e-05
1.22081e-05
1.24339e-05
1.25413e-05
1.25566e-05
1.23222e-05
1.17511e-05
9.98804e-06
6.42839e-06
)
;

boundaryField
{
    movingWall
    {
        type            calculated;
        value           uniform 0;
    }
    fixedWalls
    {
        type            calculated;
        value           uniform 0;
    }
    frontAndBack
    {
        type            empty;
        value           nonuniform 0();
    }
}


// ************************************************************************* //
