/*--------------------------------*- C++ -*----------------------------------*\
| =========                 |                                                 |
| \\      /  F ield         | OpenFOAM: The Open Source CFD Toolbox           |
|  \\    /   O peration     | Version:  5.x                                   |
|   \\  /    A nd           | Web:      www.OpenFOAM.org                      |
|    \\/     M anipulation  |                                                 |
\*---------------------------------------------------------------------------*/
FoamFile
{
    version     2.0;
    format      ascii;
    class       volVectorField;
    location    "14";
    object      U;
}
// * * * * * * * * * * * * * * * * * * * * * * * * * * * * * * * * * * * * * //

dimensions      [0 1 -1 0 0 0 0];

internalField   nonuniform List<vector> 
400
(
(0.00266675 -0.00358839 0)
(0.00210203 -0.000669494 0)
(-0.00536098 0.00486889 0)
(-0.0269913 0.0106836 0)
(-0.0614924 0.0137747 0)
(-0.0877493 0.0120298 0)
(-0.11145 0.0103046 0)
(-0.129164 0.0079345 0)
(-0.143355 0.0058043 0)
(-0.15284 0.00343257 0)
(-0.1583 0.00143772 0)
(-0.160231 -0.00072826 0)
(-0.157878 -0.00416612 0)
(-0.150436 -0.00646697 0)
(-0.137965 -0.00985925 0)
(-0.11938 -0.0125969 0)
(-0.0953757 -0.015772 0)
(-0.06662 -0.0169824 0)
(-0.0360571 -0.014284 0)
(-0.00876279 -0.00194973 0)
(-0.00236862 -0.00164257 0)
(-0.0131388 0.0128234 0)
(-0.0387983 0.0307178 0)
(-0.0681604 0.0395424 0)
(-0.0928669 0.0386748 0)
(-0.112982 0.0347967 0)
(-0.1301 0.0294149 0)
(-0.142813 0.0236067 0)
(-0.153303 0.0170501 0)
(-0.160464 0.0108571 0)
(-0.164483 0.00490204 0)
(-0.164909 -0.00107424 0)
(-0.16165 -0.00756263 0)
(-0.154651 -0.0146878 0)
(-0.143361 -0.0231457 0)
(-0.127145 -0.032769 0)
(-0.106079 -0.04336 0)
(-0.0802601 -0.0521693 0)
(-0.0498168 -0.0526997 0)
(-0.0177312 -0.0312766 0)
(-0.00904191 0.0150086 0)
(-0.0320429 0.0404369 0)
(-0.0583251 0.0559072 0)
(-0.0813503 0.0603258 0)
(-0.0994191 0.0569518 0)
(-0.114337 0.0500213 0)
(-0.126338 0.0412714 0)
(-0.135477 0.0318879 0)
(-0.142071 0.0231035 0)
(-0.145384 0.0143933 0)
(-0.146676 0.00564141 0)
(-0.145598 -0.00320339 0)
(-0.142466 -0.012363 0)
(-0.136255 -0.0223209 0)
(-0.12708 -0.0336777 0)
(-0.114197 -0.0468299 0)
(-0.097304 -0.06201 0)
(-0.0762 -0.0779354 0)
(-0.0496966 -0.0880173 0)
(-0.0205059 -0.0737541 0)
(-0.0132207 0.0384794 0)
(-0.0379265 0.063822 0)
(-0.0608786 0.0761561 0)
(-0.0786914 0.0774647 0)
(-0.0921636 0.071579 0)
(-0.102923 0.0622007 0)
(-0.110898 0.0510108 0)
(-0.116688 0.0392984 0)
(-0.120449 0.0278249 0)
(-0.122453 0.0165996 0)
(-0.122825 0.00571932 0)
(-0.121434 -0.00520665 0)
(-0.118226 -0.0165542 0)
(-0.112974 -0.0288828 0)
(-0.105636 -0.0427836 0)
(-0.0958047 -0.0588013 0)
(-0.0827908 -0.0771142 0)
(-0.0659269 -0.0968891 0)
(-0.0436626 -0.113412 0)
(-0.0188974 -0.108326 0)
(-0.013527 0.0606042 0)
(-0.0360328 0.0848625 0)
(-0.0546441 0.0935471 0)
(-0.0686117 0.091542 0)
(-0.0789217 0.0828058 0)
(-0.0867247 0.0708296 0)
(-0.092192 0.0573251 0)
(-0.0960662 0.0436341 0)
(-0.0984676 0.0303911 0)
(-0.0995382 0.0176263 0)
(-0.0992648 0.00521009 0)
(-0.0976289 -0.00723279 0)
(-0.0945955 -0.0201068 0)
(-0.0901327 -0.0340265 0)
(-0.0842483 -0.0496825 0)
(-0.0768179 -0.0678339 0)
(-0.0671794 -0.0890189 0)
(-0.0541913 -0.112817 0)
(-0.0359005 -0.135387 0)
(-0.0163892 -0.137611 0)
(-0.0116049 0.0811872 0)
(-0.0301824 0.103324 0)
(-0.0447975 0.108265 0)
(-0.0557824 0.10282 0)
(-0.0636316 0.0911885 0)
(-0.069372 0.0768129 0)
(-0.0733306 0.0614668 0)
(-0.0761161 0.0463586 0)
(-0.077751 0.031874 0)
(-0.0783261 0.0179175 0)
(-0.077843 0.00428108 0)
(-0.0762819 -0.00936628 0)
(-0.0736169 -0.0234289 0)
(-0.0698703 -0.0384694 0)
(-0.0651203 -0.0551972 0)
(-0.0593997 -0.0745049 0)
(-0.0523925 -0.0973443 0)
(-0.0429855 -0.124089 0)
(-0.0303978 -0.152464 0)
(-0.0106784 -0.161464 0)
(-0.00952015 0.0985757 0)
(-0.0229452 0.118292 0)
(-0.0341013 0.120067 0)
(-0.0423733 0.111527 0)
(-0.048181 0.097453 0)
(-0.0524253 0.0811934 0)
(-0.0553942 0.0644867 0)
(-0.0574988 0.0483126 0)
(-0.0587393 0.032857 0)
(-0.0591874 0.0179632 0)
(-0.0588202 0.00336963 0)
(-0.0575944 -0.0112689 0)
(-0.0554648 -0.0263333 0)
(-0.052465 -0.042293 0)
(-0.0487128 -0.0598064 0)
(-0.0443262 -0.0798427 0)
(-0.039261 -0.103624 0)
(-0.0325197 -0.13249 0)
(-0.0249369 -0.16507 0)
(-0.0077016 -0.181645 0)
(-0.00660621 0.111867 0)
(-0.0155043 0.129647 0)
(-0.0235719 0.128882 0)
(-0.0293163 0.117978 0)
(-0.0333653 0.102126 0)
(-0.0363985 0.0845154 0)
(-0.0386097 0.0668169 0)
(-0.0402397 0.0498421 0)
(-0.0412732 0.0336696 0)
(-0.0417491 0.0180834 0)
(-0.041627 0.00276033 0)
(-0.0408465 -0.0126583 0)
(-0.0393554 -0.0285238 0)
(-0.0371872 -0.0452117 0)
(-0.0344779 -0.0632668 0)
(-0.0314001 -0.0836692 0)
(-0.0280599 -0.107902 0)
(-0.0236303 -0.138135 0)
(-0.0203693 -0.173832 0)
(-0.00392354 -0.19748 0)
(-0.00421086 0.120145 0)
(-0.00854651 0.136925 0)
(-0.01354 0.134561 0)
(-0.0169071 0.122298 0)
(-0.0193452 0.105351 0)
(-0.0212923 0.0869046 0)
(-0.0228163 0.0685746 0)
(-0.0240237 0.0510696 0)
(-0.0248795 0.0344194 0)
(-0.0253923 0.0183602 0)
(-0.0255207 0.00252449 0)
(-0.0252091 -0.0134589 0)
(-0.0244144 -0.0299136 0)
(-0.0231592 -0.0471347 0)
(-0.0215907 -0.0655263 0)
(-0.0199157 -0.0860256 0)
(-0.0183508 -0.110406 0)
(-0.0158551 -0.141495 0)
(-0.0166863 -0.179569 0)
(-0.00153923 -0.210282 0)
(-0.000897021 0.123983 0)
(-0.00193012 0.140937 0)
(-0.00408641 0.137567 0)
(-0.00511998 0.124646 0)
(-0.00600645 0.107242 0)
(-0.00687279 0.0884169 0)
(-0.00767506 0.069781 0)
(-0.0084221 0.0519999 0)
(-0.00905502 0.0350918 0)
(-0.00955999 0.0187733 0)
(-0.0099072 0.00265335 0)
(-0.0100632 -0.0136485 0)
(-0.0100093 -0.0304377 0)
(-0.00976218 -0.0479438 0)
(-0.00945567 -0.0664379 0)
(-0.00930575 -0.0867639 0)
(-0.00974734 -0.110954 0)
(-0.00886579 -0.142455 0)
(-0.0136692 -0.182341 0)
(0.00137605 -0.219744 0)
(0.00155839 0.122658 0)
(0.00411707 0.141032 0)
(0.0051475 0.137574 0)
(0.00627496 0.124906 0)
(0.00690953 0.107608 0)
(0.00717665 0.0889059 0)
(0.00717148 0.0703329 0)
(0.00696105 0.0525556 0)
(0.00662017 0.0356265 0)
(0.00617524 0.0192785 0)
(0.00564175 0.0031245 0)
(0.00502476 -0.0132184 0)
(0.00430941 -0.0300448 0)
(0.00347844 -0.047552 0)
(0.00239494 -0.0659027 0)
(0.000903228 -0.0858102 0)
(-0.00172579 -0.109477 0)
(-0.00233429 -0.141032 0)
(-0.0112604 -0.182936 0)
(0.00382954 -0.22661 0)
(0.00365029 0.118114 0)
(0.0101476 0.13794 0)
(0.0137381 0.135361 0)
(0.0171902 0.123733 0)
(0.0195378 0.106802 0)
(0.0210759 0.0885066 0)
(0.0220115 0.0702516 0)
(0.0224543 0.0527159 0)
(0.0224937 0.0359935 0)
(0.0221661 0.0198543 0)
(0.0214745 0.00393349 0)
(0.0203996 -0.0121473 0)
(0.0188863 -0.0286828 0)
(0.0169198 -0.045863 0)
(0.0143254 -0.0637818 0)
(0.0110661 -0.0830346 0)
(0.00622329 -0.105854 0)
(0.00400326 -0.137146 0)
(-0.00911196 -0.181314 0)
(0.00725693 -0.230694 0)
(0.00601214 0.109001 0)
(0.0156696 0.131316 0)
(0.022333 0.129949 0)
(0.0277374 0.120026 0)
(0.0319975 0.104173 0)
(0.0349676 0.0867378 0)
(0.0370184 0.0691999 0)
(0.0382734 0.0522548 0)
(0.0388187 0.0360563 0)
(0.0386933 0.0204314 0)
(0.0378881 0.00506155 0)
(0.0363701 -0.0104106 0)
(0.0340331 -0.0262751 0)
(0.030873 -0.0427462 0)
(0.02663 -0.0598959 0)
(0.0215337 -0.0782416 0)
(0.0144467 -0.0999517 0)
(0.010194 -0.130976 0)
(-0.00695009 -0.177897 0)
(0.0112523 -0.232892 0)
(0.00788506 0.0961002 0)
(0.0206879 0.122385 0)
(0.0300625 0.123302 0)
(0.0377379 0.114776 0)
(0.0440655 0.100343 0)
(0.0487773 0.0839709 0)
(0.0522222 0.0673695 0)
(0.0545241 0.0512599 0)
(0.0557555 0.0358469 0)
(0.0559604 0.0210206 0)
(0.0551134 0.00652139 0)
(0.0531792 -0.00798191 0)
(0.0499866 -0.0227735 0)
(0.0455914 -0.0381083 0)
(0.0395719 -0.054107 0)
(0.0325573 -0.0712852 0)
(0.0229461 -0.0917698 0)
(0.0166229 -0.122931 0)
(-0.00438293 -0.173063 0)
(0.0162264 -0.233479 0)
(0.00977388 0.0796214 0)
(0.024923 0.109262 0)
(0.036762 0.112833 0)
(0.0468143 0.106135 0)
(0.0554243 0.0936521 0)
(0.0622466 0.0789339 0)
(0.0674219 0.0638001 0)
(0.071062 0.0490362 0)
(0.0732135 0.0348933 0)
(0.0739338 0.0213229 0)
(0.0731708 0.0081406 0)
(0.0708929 -0.00494586 0)
(0.0668415 -0.0181838 0)
(0.0612208 -0.0318893 0)
(0.0533235 -0.0462619 0)
(0.0443032 -0.0619919 0)
(0.0318688 -0.0811712 0)
(0.0235046 -0.112701 0)
(-0.001886 -0.166785 0)
(0.0219501 -0.233497 0)
(0.00992843 0.0600925 0)
(0.0274203 0.0951975 0)
(0.0413358 0.101691 0)
(0.0538574 0.0966084 0)
(0.0652204 0.0859022 0)
(0.0747147 0.072949 0)
(0.0820957 0.0594318 0)
(0.0874356 0.0462017 0)
(0.0907969 0.0335756 0)
(0.0922676 0.0215416 0)
(0.0917731 0.0100155 0)
(0.0893154 -0.00135265 0)
(0.0844952 -0.0125756 0)
(0.077809 -0.0241541 0)
(0.068046 -0.0363721 0)
(0.0571281 -0.0502935 0)
(0.0416969 -0.0679126 0)
(0.0312611 -0.0999851 0)
(0.000435807 -0.158836 0)
(0.0289169 -0.230318 0)
(0.00928529 0.0403688 0)
(0.0266726 0.0757165 0)
(0.0427335 0.0841618 0)
(0.0582064 0.0811484 0)
(0.0727317 0.0728428 0)
(0.0853745 0.0624962 0)
(0.0954165 0.0515202 0)
(0.102835 0.0406722 0)
(0.107677 0.0303731 0)
(0.110166 0.0206124 0)
(0.110062 0.0114044 0)
(0.107787 0.00240092 0)
(0.102585 -0.00632238 0)
(0.0954247 -0.0153373 0)
(0.084245 -0.0248161 0)
(0.0721372 -0.0364452 0)
(0.0538795 -0.0519791 0)
(0.0412594 -0.0846088 0)
(0.00474042 -0.147077 0)
(0.0386357 -0.218808 0)
(-0.000346429 0.0248628 0)
(0.0200392 0.060367 0)
(0.0381368 0.0683269 0)
(0.0572313 0.0665106 0)
(0.0756517 0.0602285 0)
(0.091719 0.0522771 0)
(0.104832 0.0437141 0)
(0.11485 0.0351648 0)
(0.121703 0.0271196 0)
(0.125912 0.0196041 0)
(0.12699 0.0127299 0)
(0.125894 0.00620801 0)
(0.121297 0.000128056 0)
(0.11529 -0.00624351 0)
(0.104184 -0.0126319 0)
(0.0929819 -0.0214069 0)
(0.0728982 -0.0341039 0)
(0.0594432 -0.0653929 0)
(0.018548 -0.126692 0)
(0.055765 -0.189287 0)
(-0.0133328 0.0288852 0)
(-0.000418722 0.031189 0)
(0.0261364 0.0345733 0)
(0.0522578 0.0355076 0)
(0.0757663 0.033761 0)
(0.0963284 0.0299589 0)
(0.113378 0.0255629 0)
(0.127148 0.021097 0)
(0.137269 0.0168635 0)
(0.144599 0.0128423 0)
(0.148481 0.00928796 0)
(0.150288 0.00570549 0)
(0.148491 0.00273492 0)
(0.145476 -0.00112073 0)
(0.137208 -0.00408857 0)
(0.129718 -0.0103355 0)
(0.111389 -0.0186204 0)
(0.101561 -0.0446434 0)
(0.0604928 -0.0909944 0)
(0.0897127 -0.134999 0)
(0.0437711 0.0376609 0)
(0.0491844 0.0298662 0)
(0.0705004 0.0273922 0)
(0.100484 0.0270915 0)
(0.127492 0.0261508 0)
(0.152354 0.0241674 0)
(0.174194 0.0216399 0)
(0.193553 0.0191324 0)
(0.20943 0.0167045 0)
(0.22291 0.0145602 0)
(0.233076 0.0125438 0)
(0.241324 0.0108358 0)
(0.246509 0.00899965 0)
(0.250282 0.00748554 0)
(0.250427 0.00531393 0)
(0.249052 0.0030801 0)
(0.236901 0.00221465 0)
(0.224666 -0.00798237 0)
(0.174736 -0.0123582 0)
(0.162151 -0.0571579 0)
)
;

boundaryField
{
    movingWall
    {
        type            fixedValue;
        value           uniform (1 0 0);
    }
    fixedWalls
    {
        type            noSlip;
    }
    frontAndBack
    {
        type            empty;
    }
}


// ************************************************************************* //
