/*--------------------------------*- C++ -*----------------------------------*\
| =========                 |                                                 |
| \\      /  F ield         | OpenFOAM: The Open Source CFD Toolbox           |
|  \\    /   O peration     | Version:  5.x                                   |
|   \\  /    A nd           | Web:      www.OpenFOAM.org                      |
|    \\/     M anipulation  |                                                 |
\*---------------------------------------------------------------------------*/
FoamFile
{
    version     2.0;
    format      ascii;
    class       volScalarField;
    location    "0.9";
    object      p;
}
// * * * * * * * * * * * * * * * * * * * * * * * * * * * * * * * * * * * * * //

dimensions      [0 2 -2 0 0 0 0];

internalField   nonuniform List<scalar> 
336
(
-6.30572e-06
-0.000856112
-0.00307239
-0.00597735
-0.0090063
-0.0120653
-0.0153956
-0.0193303
-0.0239798
-0.0288607
-0.0325873
-0.0336596
0.000768519
-0.000277025
-0.00249113
-0.00538082
-0.00857376
-0.0119929
-0.0157499
-0.0199917
-0.0247035
-0.0294768
-0.0332248
-0.0345498
0.00349545
0.00153814
-0.00122048
-0.00441697
-0.00786549
-0.0115566
-0.0156319
-0.0202694
-0.0255205
-0.0311293
-0.0362698
-0.0393834
0.00813621
0.00444139
0.000615718
-0.00312911
-0.00686661
-0.0107174
-0.0149775
-0.0200356
-0.0261883
-0.0334884
-0.0416923
-0.0492856
0.0142919
0.00797777
0.00263137
-0.00177921
-0.00571098
-0.00947434
-0.0136139
-0.0188768
-0.025976
-0.035541
-0.0489092
-0.0655076
0.0213029
0.0114441
0.00418157
-0.000877847
-0.00471918
-0.00789211
-0.0112631
-0.0160738
-0.0236277
-0.0356007
-0.0572882
-0.0921141
0.0280745
0.0137404
0.00425975
-0.00126236
-0.00449089
-0.00623128
-0.00767293
-0.0105767
-0.0169305
-0.0303157
-0.0648553
-0.135864
0.0329039
0.0132414
0.00138377
-0.00422445
-0.00607469
-0.00517428
-0.00282952
-0.000886276
-0.0013645
-0.00927298
-0.048243
-0.151768
0.0333793
0.00770349
-0.00650475
-0.0116556
-0.0112422
-0.0064082
0.00176728
0.0122178
0.0246337
0.0378431
0.0451407
0.0743058
0.0263602
-0.00577236
-0.0220584
-0.0260458
-0.0225292
-0.012929
0.00177134
0.0209164
0.044762
0.0740358
0.109918
0.170753
0.00800258
-0.0307309
-0.0484078
-0.0501538
-0.0424984
-0.0273801
-0.00593167
0.0211793
0.0541093
0.0936384
0.141727
0.207154
-0.0263408
-0.0714305
-0.0890665
-0.086715
-0.0732593
-0.051415
-0.0226114
0.0123455
0.0534504
0.101288
0.157281
0.225335
-0.0826062
-0.133117
-0.147897
-0.13819
-0.116156
-0.0855505
-0.0481489
-0.00486985
0.0442226
0.0996071
0.162207
0.233595
-0.169365
-0.222637
-0.229045
-0.206357
-0.171274
-0.12876
-0.0808206
-0.0282924
0.0289344
0.0914683
0.160138
0.235787
-0.300906
-0.349477
-0.336584
-0.291466
-0.236593
-0.177829
-0.116903
-0.0540749
0.0113911
0.0806427
0.154909
0.235305
-0.502908
-0.526889
-0.473515
-0.390921
-0.306926
-0.226732
-0.150491
-0.0768485
-0.00369205
0.0712211
0.15002
0.23471
-0.822816
-0.772126
-0.64001
-0.498309
-0.373639
-0.266916
-0.17419
-0.090635
-0.0116359
0.0667804
0.148052
0.235415
-1.36993
-1.10547
-0.823692
-0.596631
-0.421227
-0.286124
-0.179285
-0.0896857
-0.00890092
0.0692224
0.149523
0.236426
-2.43959
-1.53464
-0.952813
-0.621688
-0.4054
-0.25652
-0.14955
-0.0654515
0.00806865
0.0786601
0.15169
0.231821
-4.27054
-1.95263
-0.887014
-0.48055
-0.275479
-0.153453
-0.0743212
-0.0144531
0.039053
0.0928333
0.150785
0.216002
0.299764
0.451212
0.536275
0.591604
0.621748
0.624664
0.602854
0.570424
0.295246
0.406075
0.486128
0.542857
0.576752
0.586669
0.572024
0.538306
0.300138
0.390606
0.465754
0.523069
0.559856
0.57345
0.558461
0.513799
0.307714
0.390442
0.464433
0.524637
0.566338
0.584432
0.568241
0.51151
0.313595
0.395415
0.472765
0.540117
0.591393
0.618824
0.605827
0.540283
0.318071
0.403801
0.488991
0.568666
0.63609
0.680866
0.679352
0.610697
0.322314
0.415162
0.512134
0.609789
0.701853
0.77598
0.800432
0.740273
0.327097
0.428651
0.540358
0.66167
0.788779
0.909565
0.985274
0.960014
0.332261
0.442453
0.570449
0.720571
0.894662
1.0853
1.25474
1.32414
0.334827
0.45104
0.593868
0.775027
1.0065
1.29501
1.63534
1.9521
0.324413
0.437172
0.582731
0.781595
1.06222
1.4718
2.14322
3.14812
0.292133
0.385331
0.507925
0.684782
0.96329
1.46887
2.64873
5.07897
)
;

boundaryField
{
    lid
    {
        type            zeroGradient;
    }
    fixedWalls
    {
        type            zeroGradient;
    }
    frontAndBack
    {
        type            empty;
    }
}


// ************************************************************************* //
