/*--------------------------------*- C++ -*----------------------------------*\
| =========                 |                                                 |
| \\      /  F ield         | OpenFOAM: The Open Source CFD Toolbox           |
|  \\    /   O peration     | Version:  5.x                                   |
|   \\  /    A nd           | Web:      www.OpenFOAM.org                      |
|    \\/     M anipulation  |                                                 |
\*---------------------------------------------------------------------------*/
FoamFile
{
    version     2.0;
    format      ascii;
    class       volScalarField;
    location    "13";
    object      epsilon;
}
// * * * * * * * * * * * * * * * * * * * * * * * * * * * * * * * * * * * * * //

dimensions      [0 2 -3 0 0 0 0];

internalField   nonuniform List<scalar> 
400
(
2.98952e-05
9.37405e-05
0.000349809
0.000683594
0.000905299
0.00107656
0.00121411
0.00134631
0.00146149
0.00157927
0.00168893
0.00180476
0.00191644
0.0019841
0.00201276
0.00200096
0.00183174
0.00140563
0.000861235
0.00060504
0.000128457
0.00034157
0.000845087
0.00110842
0.00116365
0.00118415
0.00118913
0.00122654
0.00127325
0.00136118
0.00147399
0.00162392
0.00180172
0.00201029
0.00223385
0.00243436
0.00252177
0.00248249
0.00193666
0.00126027
0.00040101
0.000963159
0.0011689
0.00118939
0.00114724
0.00112395
0.00110704
0.00112709
0.001186
0.00126047
0.0013534
0.00146225
0.00159321
0.0017531
0.0019452
0.00216801
0.00233899
0.00240012
0.00218221
0.0016447
0.000847683
0.00124407
0.00125015
0.00115026
0.00106356
0.00101022
0.000993809
0.000993743
0.00102011
0.00105075
0.00109962
0.00117151
0.0012795
0.00143365
0.00165081
0.00193432
0.0022289
0.0023597
0.00229295
0.00189229
0.00116247
0.00139586
0.00122127
0.00105362
0.000935484
0.000872607
0.000831606
0.000801364
0.000783571
0.000776308
0.000784961
0.000832549
0.000925431
0.00108368
0.00133277
0.00169323
0.00214901
0.00240807
0.00244191
0.00207698
0.00133071
0.00138972
0.00114539
0.000934962
0.000814297
0.000735514
0.000667184
0.000604673
0.000551154
0.000520289
0.000509696
0.000529641
0.000608904
0.00075888
0.00102114
0.00144083
0.00203765
0.00252125
0.00264508
0.00222607
0.00135781
0.00134117
0.00103925
0.000830735
0.000708071
0.000614259
0.000525494
0.000442711
0.000373129
0.000330512
0.000313448
0.000314108
0.000372463
0.000498001
0.000742025
0.00118278
0.00189562
0.00264424
0.00288458
0.00234507
0.00133844
0.00123822
0.0009408
0.000743997
0.00062191
0.000519038
0.000419796
0.000330095
0.000258893
0.000215455
0.000196721
0.000193974
0.000230421
0.000321993
0.000524869
0.000942253
0.00171276
0.00275095
0.00318987
0.00244403
0.00128898
0.00112181
0.000854886
0.000676109
0.000557314
0.000451447
0.000350115
0.000261757
0.000195117
0.000156341
0.000140176
0.000138131
0.000162663
0.00022677
0.000381294
0.000752799
0.00154243
0.00280682
0.00349145
0.00251696
0.00119572
0.00101904
0.000784542
0.00062433
0.000511616
0.000408476
0.00030985
0.000225956
0.000165594
0.000131058
0.000116971
0.000116739
0.000134889
0.000182906
0.000301601
0.000615516
0.00139837
0.00284097
0.00381792
0.00257653
0.00109597
0.000933882
0.000729503
0.000588176
0.00048288
0.00038409
0.000292345
0.000216947
0.000162262
0.000128741
0.000112581
0.000112564
0.000127065
0.000167032
0.000265589
0.000535325
0.00127566
0.00287093
0.00411544
0.00261252
0.00100634
0.000876616
0.000691747
0.000563498
0.000465665
0.000377481
0.000294164
0.000222367
0.000169723
0.000136864
0.000120721
0.000120992
0.000131655
0.00016502
0.000254631
0.000500051
0.00120252
0.00291458
0.0043867
0.00263671
0.000912318
0.000836543
0.000671598
0.000556085
0.000466506
0.000382184
0.000303921
0.000237792
0.000188748
0.000156999
0.000140092
0.000140625
0.000150696
0.000181694
0.000261993
0.000490486
0.00117297
0.00297399
0.0045742
0.00264785
0.00082092
0.000814994
0.000680453
0.000564091
0.000476533
0.000396864
0.000325846
0.000266388
0.000220566
0.000189723
0.000171024
0.000171438
0.000181395
0.000212888
0.000294033
0.000515297
0.00117094
0.00306575
0.00466705
0.00265327
0.000721772
0.000790134
0.000700349
0.000588586
0.000503009
0.000427114
0.000360151
0.000304602
0.000261495
0.000232324
0.000212958
0.000213657
0.000224611
0.000259148
0.00034687
0.000579927
0.00124097
0.00321311
0.00469976
0.00258995
0.000612932
0.000780319
0.000742931
0.000650358
0.000563907
0.000488733
0.000421458
0.000365114
0.000320462
0.000290398
0.000269437
0.000270815
0.000284551
0.000326645
0.000430819
0.000697506
0.0013882
0.00341032
0.00453388
0.00248478
0.000501576
0.000739037
0.000762814
0.000730804
0.000664611
0.000592391
0.000522487
0.000461484
0.000412418
0.000378012
0.000357892
0.000362118
0.000384185
0.00044671
0.000592953
0.000948709
0.00172558
0.00368134
0.00417558
0.00233971
0.000338356
0.000647405
0.000840966
0.000905436
0.000887861
0.000831293
0.000753077
0.000680902
0.00062528
0.000584676
0.000582187
0.000602249
0.000659658
0.000798165
0.00108389
0.00172162
0.00267316
0.00409066
0.00400201
0.00215852
0.00034441
0.000639735
0.00104751
0.00126151
0.00133759
0.00133562
0.00131432
0.00129001
0.00129995
0.00134296
0.00143882
0.00163466
0.00190974
0.00236273
0.00296363
0.00386777
0.00472242
0.00463153
0.00405662
0.00191884
0.000249971
0.000381054
0.000672766
0.00096402
0.00118083
0.00132923
0.00140925
0.00146184
0.00148434
0.00150117
0.00150599
0.00151564
0.00152422
0.00154344
0.00156106
0.00161215
0.00168282
0.00177163
0.00175408
0.0015646
)
;

boundaryField
{
    movingWall
    {
        Cmu             0.09;
        kappa           0.41;
        E               9.8;
        type            epsilonWallFunction;
        value           nonuniform List<scalar> 
20
(
0.000249971
0.000381054
0.000672766
0.00096402
0.00118083
0.00132923
0.00140925
0.00146184
0.00148434
0.00150117
0.00150599
0.00151564
0.00152422
0.00154344
0.00156106
0.00161215
0.00168282
0.00177163
0.00175408
0.0015646
)
;
    }
    fixedWalls
    {
        Cmu             0.09;
        kappa           0.41;
        E               9.8;
        type            epsilonWallFunction;
        value           nonuniform List<scalar> 
60
(
2.98952e-05
0.000128457
0.00040101
0.000847683
0.00116247
0.00133071
0.00135781
0.00133844
0.00128898
0.00119572
0.00109597
0.00100634
0.000912318
0.00082092
0.000721772
0.000612932
0.000501576
0.000338356
0.00034441
0.000249971
0.00060504
0.00126027
0.0016447
0.00189229
0.00207698
0.00222607
0.00234507
0.00244403
0.00251696
0.00257653
0.00261252
0.00263671
0.00264785
0.00265327
0.00258995
0.00248478
0.00233971
0.00215852
0.00191884
0.0015646
2.98952e-05
9.37405e-05
0.000349809
0.000683594
0.000905299
0.00107656
0.00121411
0.00134631
0.00146149
0.00157927
0.00168893
0.00180476
0.00191644
0.0019841
0.00201276
0.00200096
0.00183174
0.00140563
0.000861235
0.00060504
)
;
    }
    frontAndBack
    {
        type            empty;
    }
}


// ************************************************************************* //
