/*--------------------------------*- C++ -*----------------------------------*\
| =========                 |                                                 |
| \\      /  F ield         | OpenFOAM: The Open Source CFD Toolbox           |
|  \\    /   O peration     | Version:  5.x                                   |
|   \\  /    A nd           | Web:      www.OpenFOAM.org                      |
|    \\/     M anipulation  |                                                 |
\*---------------------------------------------------------------------------*/
FoamFile
{
    version     2.0;
    format      ascii;
    class       volScalarField;
    location    "13";
    object      k;
}
// * * * * * * * * * * * * * * * * * * * * * * * * * * * * * * * * * * * * * //

dimensions      [0 2 -2 0 0 0 0];

internalField   nonuniform List<scalar> 
400
(
9.3429e-06
2.93035e-05
0.000109345
0.000213661
0.000282944
0.000336463
0.000379446
0.000420756
0.000456745
0.000493548
0.000527812
0.000564002
0.000598896
0.000620036
0.000628989
0.00062529
0.000572405
0.000439236
0.000269133
0.000189078
4.01518e-05
0.000133653
0.000276827
0.000435116
0.000503207
0.000581864
0.000627744
0.000694289
0.000748932
0.000814014
0.000875935
0.000941056
0.000999099
0.00106255
0.00111279
0.00113597
0.00113767
0.000995636
0.000655689
0.000393817
0.000125346
0.000404546
0.000559023
0.000640894
0.000693492
0.000741743
0.000777469
0.000826516
0.000869683
0.000920477
0.000967475
0.00101549
0.00106209
0.00111314
0.00116017
0.00118915
0.0011984
0.00113027
0.00080784
0.000513947
0.00026495
0.000616324
0.000697907
0.000732869
0.000757503
0.000777155
0.000800773
0.000832054
0.000862066
0.000893471
0.000921687
0.000957321
0.00100367
0.00106232
0.00113232
0.00119336
0.00121851
0.00120571
0.000951587
0.000591323
0.00036333
0.000730806
0.00075504
0.00075401
0.000757156
0.000769217
0.000781082
0.000786867
0.000784819
0.000781232
0.000785766
0.00081245
0.000861186
0.000937353
0.00104458
0.00117381
0.00125141
0.00126811
0.00107444
0.000649047
0.000415913
0.000765682
0.000764874
0.000749825
0.000744753
0.000739499
0.000718839
0.000683952
0.000650039
0.000631031
0.000624682
0.000638777
0.000688127
0.000775553
0.000912429
0.00109924
0.00127185
0.00133403
0.00120194
0.000695647
0.000424385
0.000758466
0.000758118
0.000735101
0.000713535
0.000680934
0.000633777
0.000577676
0.000528134
0.000497203
0.000484964
0.000488189
0.000532014
0.000618855
0.000767516
0.000994711
0.00127554
0.00140692
0.00132211
0.000732844
0.000418331
0.000738721
0.000740066
0.000706546
0.000673504
0.000624854
0.000561365
0.000493997
0.000437375
0.000401227
0.000385998
0.000384789
0.000419299
0.000496383
0.00063801
0.000878636
0.00123029
0.00147186
0.0014541
0.000763777
0.000402875
0.000699548
0.00070829
0.000676241
0.000637407
0.000580204
0.000509088
0.000437975
0.000380401
0.000343979
0.000328467
0.000326967
0.000353436
0.000416289
0.000542794
0.000777226
0.00116235
0.00153155
0.00156903
0.000786578
0.000373729
0.000664005
0.000677012
0.000648972
0.000609072
0.000549318
0.000477036
0.0004067
0.000351516
0.000316503
0.000301381
0.000301478
0.000323294
0.000375961
0.000483871
0.000700465
0.00109473
0.0015764
0.00168602
0.000805201
0.000342555
0.000619879
0.000643655
0.000624137
0.000587007
0.000530404
0.000461465
0.00039695
0.000345604
0.000311342
0.00029419
0.000294902
0.00031347
0.000359626
0.000456139
0.000654987
0.00104215
0.00160823
0.00178409
0.000816457
0.00031454
0.000580993
0.000617231
0.00060612
0.000573565
0.000521724
0.000461746
0.000400916
0.000351734
0.000318397
0.000301291
0.000301953
0.000316058
0.000356713
0.000447174
0.000634832
0.00101098
0.00163634
0.0018691
0.000824019
0.000285155
0.000533298
0.000588747
0.000587061
0.000566009
0.000522734
0.000467647
0.000413096
0.000368296
0.000336981
0.000320293
0.000321585
0.000334901
0.000372362
0.000454861
0.000630517
0.000997495
0.00166261
0.00191111
0.000827508
0.000256589
0.000499587
0.000572313
0.000575787
0.000564099
0.000529752
0.000482077
0.000435705
0.000396114
0.000367278
0.000350843
0.000352487
0.000365752
0.00040265
0.000483274
0.000651351
0.000995977
0.00168988
0.00192606
0.000829203
0.000225601
0.000451558
0.000547814
0.000571186
0.000566732
0.000545693
0.000505749
0.000465799
0.000431456
0.000405977
0.000390948
0.000393114
0.000406849
0.000444209
0.000524794
0.000692331
0.0010215
0.00171602
0.00192041
0.000809419
0.000191583
0.000418609
0.000534897
0.000575751
0.00057905
0.00056973
0.000544478
0.00051019
0.000478992
0.000455177
0.000440078
0.000442491
0.000456894
0.000495832
0.000578972
0.000755166
0.00106725
0.00173054
0.00183
0.000776546
0.000156779
0.000361408
0.000502785
0.000584827
0.000609602
0.000607208
0.000593532
0.000565362
0.000536707
0.000513885
0.000500115
0.000503869
0.000521238
0.000566228
0.000658688
0.000859947
0.00116707
0.00173524
0.00169421
0.000731219
0.000105761
0.000301515
0.000509735
0.000630153
0.000702569
0.000709285
0.000701056
0.000679297
0.000647898
0.000622547
0.000616074
0.000625803
0.000655312
0.000726399
0.000852193
0.00112145
0.00143762
0.00173511
0.00153725
0.000674588
0.00010765
0.000314922
0.000544797
0.000684954
0.000766289
0.000805156
0.000820274
0.000836164
0.000851772
0.000883068
0.000927266
0.00100698
0.00110993
0.00127488
0.00146914
0.00176327
0.00190825
0.00180213
0.00143885
0.000599697
7.81327e-05
0.000119102
0.000210275
0.000301306
0.000369067
0.000415453
0.000440466
0.000456904
0.000463941
0.000469202
0.000470708
0.000473723
0.000476404
0.000482408
0.000487911
0.000503873
0.000525955
0.000553703
0.000548216
0.000488991
)
;

boundaryField
{
    movingWall
    {
        type            kqRWallFunction;
        value           nonuniform List<scalar> 
20
(
7.81327e-05
0.000119102
0.000210275
0.000301306
0.000369067
0.000415453
0.000440466
0.000456904
0.000463941
0.000469202
0.000470708
0.000473723
0.000476404
0.000482408
0.000487911
0.000503873
0.000525955
0.000553703
0.000548216
0.000488991
)
;
    }
    fixedWalls
    {
        type            kqRWallFunction;
        value           nonuniform List<scalar> 
60
(
9.3429e-06
4.01518e-05
0.000125346
0.00026495
0.00036333
0.000415913
0.000424385
0.000418331
0.000402875
0.000373729
0.000342555
0.00031454
0.000285155
0.000256589
0.000225601
0.000191583
0.000156779
0.000105761
0.00010765
7.81327e-05
0.000189078
0.000393817
0.000513947
0.000591323
0.000649047
0.000695647
0.000732844
0.000763777
0.000786578
0.000805201
0.000816457
0.000824019
0.000827508
0.000829203
0.000809419
0.000776546
0.000731219
0.000674588
0.000599697
0.000488991
9.3429e-06
2.93035e-05
0.000109345
0.000213661
0.000282944
0.000336463
0.000379446
0.000420756
0.000456745
0.000493548
0.000527812
0.000564002
0.000598896
0.000620036
0.000628989
0.00062529
0.000572405
0.000439236
0.000269133
0.000189078
)
;
    }
    frontAndBack
    {
        type            empty;
    }
}


// ************************************************************************* //
