/*--------------------------------*- C++ -*----------------------------------*\
| =========                 |                                                 |
| \\      /  F ield         | OpenFOAM: The Open Source CFD Toolbox           |
|  \\    /   O peration     | Version:  5.x                                   |
|   \\  /    A nd           | Web:      www.OpenFOAM.org                      |
|    \\/     M anipulation  |                                                 |
\*---------------------------------------------------------------------------*/
FoamFile
{
    version     2.0;
    format      ascii;
    class       volScalarField;
    location    "13";
    object      nut;
}
// * * * * * * * * * * * * * * * * * * * * * * * * * * * * * * * * * * * * * //

dimensions      [0 2 -1 0 0 0 0];

internalField   nonuniform List<scalar> 
400
(
2.62787e-07
8.24432e-07
3.07616e-06
6.01029e-06
7.95888e-06
9.46411e-06
1.06729e-05
1.18347e-05
1.28468e-05
1.38818e-05
1.48453e-05
1.58629e-05
1.68442e-05
1.74386e-05
1.76903e-05
1.7586e-05
1.60985e-05
1.23529e-05
7.56928e-06
5.3179e-06
1.12952e-06
4.70674e-06
8.16126e-06
1.53727e-05
1.95845e-05
2.57322e-05
2.98249e-05
3.53706e-05
3.96473e-05
4.38117e-05
4.68482e-05
4.90805e-05
4.98623e-05
5.05459e-05
4.98898e-05
4.77077e-05
4.61924e-05
3.59382e-05
1.99795e-05
1.10757e-05
3.52619e-06
1.52926e-05
2.40616e-05
3.10807e-05
3.77288e-05
4.40559e-05
4.91409e-05
5.45488e-05
5.73956e-05
6.04973e-05
6.22437e-05
6.3471e-05
6.37229e-05
6.36113e-05
6.2276e-05
5.87022e-05
5.52609e-05
4.79045e-05
2.69152e-05
1.44541e-05
7.4531e-06
2.74798e-05
3.50651e-05
4.20241e-05
4.85567e-05
5.38075e-05
5.80709e-05
6.27006e-05
6.55658e-05
6.83762e-05
6.95289e-05
7.04064e-05
7.08572e-05
7.08447e-05
6.99011e-05
6.62606e-05
5.99525e-05
5.54458e-05
3.55423e-05
1.66305e-05
1.02203e-05
3.44353e-05
4.20118e-05
4.85639e-05
5.5154e-05
6.10269e-05
6.60265e-05
6.95369e-05
7.07462e-05
7.07569e-05
7.07914e-05
7.13553e-05
7.21261e-05
7.29709e-05
7.36829e-05
7.32351e-05
6.55852e-05
6.01016e-05
4.25474e-05
1.82542e-05
1.16994e-05
3.79676e-05
4.59696e-05
5.41213e-05
6.13033e-05
6.69155e-05
6.97044e-05
6.96262e-05
6.89999e-05
6.88809e-05
6.89047e-05
6.93361e-05
6.99892e-05
7.13333e-05
7.33761e-05
7.54773e-05
7.14476e-05
6.35269e-05
4.9155e-05
1.9565e-05
1.19378e-05
3.8604e-05
4.97733e-05
5.85429e-05
6.47138e-05
6.79361e-05
6.87936e-05
6.78408e-05
6.72779e-05
6.73168e-05
6.753e-05
6.82872e-05
6.83921e-05
6.92134e-05
7.14494e-05
7.52892e-05
7.72462e-05
6.73722e-05
5.45374e-05
2.06115e-05
1.17675e-05
3.96649e-05
5.23945e-05
6.03883e-05
6.56441e-05
6.77019e-05
6.75607e-05
6.65353e-05
6.65011e-05
6.72458e-05
6.81649e-05
6.86979e-05
6.867e-05
6.887e-05
6.97985e-05
7.37384e-05
7.95357e-05
7.08749e-05
5.96567e-05
2.14817e-05
1.13328e-05
3.92609e-05
5.28149e-05
6.08736e-05
6.56108e-05
6.71116e-05
6.6622e-05
6.5954e-05
6.6747e-05
6.81138e-05
6.92709e-05
6.96558e-05
6.91154e-05
6.87776e-05
6.95428e-05
7.22202e-05
7.88335e-05
7.52123e-05
6.34598e-05
2.21233e-05
1.0513e-05
3.89399e-05
5.25799e-05
6.07128e-05
6.52584e-05
6.64851e-05
6.60989e-05
6.58822e-05
6.71562e-05
6.87913e-05
6.98872e-05
7.00713e-05
6.97369e-05
6.95504e-05
6.98664e-05
7.17424e-05
7.71325e-05
7.87246e-05
6.70103e-05
2.26473e-05
9.63613e-06
3.70309e-05
5.11119e-05
5.96066e-05
6.42228e-05
6.59208e-05
6.55579e-05
6.53674e-05
6.62496e-05
6.77643e-05
6.91881e-05
6.95345e-05
6.95996e-05
6.96856e-05
7.05064e-05
7.21258e-05
7.66241e-05
8.10801e-05
6.96084e-05
2.29641e-05
8.84814e-06
3.46557e-05
4.95668e-05
5.86769e-05
6.3582e-05
6.48975e-05
6.52318e-05
6.50547e-05
6.56039e-05
6.66643e-05
6.76753e-05
6.78211e-05
6.82869e-05
6.93972e-05
7.0678e-05
7.25348e-05
7.64949e-05
8.26821e-05
7.16749e-05
2.31769e-05
8.02156e-06
3.05981e-05
4.64504e-05
5.57787e-05
6.18063e-05
6.43474e-05
6.47616e-05
6.45874e-05
6.46774e-05
6.50963e-05
6.59061e-05
6.6187e-05
6.69847e-05
6.86801e-05
7.10738e-05
7.29474e-05
7.63444e-05
8.3653e-05
7.18623e-05
2.32752e-05
7.21804e-06
2.7562e-05
4.33222e-05
5.28953e-05
6.00979e-05
6.36422e-05
6.41893e-05
6.41376e-05
6.40245e-05
6.39901e-05
6.47754e-05
6.52259e-05
6.63731e-05
6.85404e-05
7.14882e-05
7.40993e-05
7.62444e-05
8.38331e-05
7.15386e-05
2.33229e-05
6.34633e-06
2.32257e-05
3.85651e-05
4.9887e-05
5.74675e-05
6.27475e-05
6.39187e-05
6.41073e-05
6.40696e-05
6.38485e-05
6.4593e-05
6.50971e-05
6.63251e-05
6.85283e-05
7.14584e-05
7.4387e-05
7.56759e-05
8.24826e-05
7.06247e-05
2.27666e-05
5.38945e-06
2.0211e-05
3.46604e-05
4.58732e-05
5.35139e-05
5.97736e-05
6.33064e-05
6.41619e-05
6.44351e-05
6.4211e-05
6.46909e-05
6.50696e-05
6.60258e-05
6.77386e-05
7.00264e-05
7.35833e-05
7.38448e-05
7.90336e-05
6.64773e-05
2.18419e-05
4.41042e-06
1.59064e-05
2.98255e-05
4.21208e-05
5.03231e-05
5.60156e-05
6.06813e-05
6.23359e-05
6.28608e-05
6.28738e-05
6.2897e-05
6.30998e-05
6.36465e-05
6.45951e-05
6.58539e-05
7.01542e-05
7.10395e-05
7.36135e-05
6.1867e-05
2.05672e-05
2.97522e-06
1.26382e-05
2.7807e-05
3.94709e-05
5.00351e-05
5.44666e-05
5.87367e-05
6.09927e-05
6.04201e-05
5.96583e-05
5.86739e-05
5.8525e-05
5.85895e-05
5.94977e-05
6.0302e-05
6.57457e-05
6.95836e-05
6.62374e-05
5.31441e-05
1.89742e-05
3.02827e-06
1.39523e-05
2.55008e-05
3.34713e-05
3.95098e-05
4.36838e-05
4.60743e-05
4.87791e-05
5.02299e-05
5.22596e-05
5.37831e-05
5.58286e-05
5.80574e-05
6.19106e-05
6.55458e-05
7.23471e-05
6.93982e-05
6.31087e-05
4.5931e-05
1.68682e-05
2.19795e-06
3.35038e-06
5.915e-06
8.47563e-06
1.03817e-05
1.16865e-05
1.23902e-05
1.28527e-05
1.30507e-05
1.31987e-05
1.32411e-05
1.33259e-05
1.34012e-05
1.357e-05
1.37247e-05
1.41735e-05
1.47946e-05
1.55749e-05
1.54205e-05
1.37544e-05
)
;

boundaryField
{
    movingWall
    {
        type            nutkWallFunction;
        Cmu             0.09;
        kappa           0.41;
        E               9.8;
        value           uniform 0;
    }
    fixedWalls
    {
        type            nutkWallFunction;
        Cmu             0.09;
        kappa           0.41;
        E               9.8;
        value           uniform 0;
    }
    frontAndBack
    {
        type            empty;
    }
}


// ************************************************************************* //
