/*--------------------------------*- C++ -*----------------------------------*\
| =========                 |                                                 |
| \\      /  F ield         | OpenFOAM: The Open Source CFD Toolbox           |
|  \\    /   O peration     | Version:  5.x                                   |
|   \\  /    A nd           | Web:      www.OpenFOAM.org                      |
|    \\/     M anipulation  |                                                 |
\*---------------------------------------------------------------------------*/
FoamFile
{
    version     2.0;
    format      ascii;
    class       volScalarField;
    location    "13";
    object      p;
}
// * * * * * * * * * * * * * * * * * * * * * * * * * * * * * * * * * * * * * //

dimensions      [0 2 -2 0 0 0 0];

internalField   nonuniform List<scalar> 
400
(
-1.3452e-08
-8.88613e-05
-0.00015274
-0.000436441
-0.00134143
-0.00282552
-0.00454395
-0.00618445
-0.00750923
-0.00838313
-0.00869218
-0.00833453
-0.00730554
-0.00559997
-0.00322669
-0.000360424
0.00262497
0.00512832
0.00660225
0.00692536
0.000102402
-4.68375e-06
-0.000254369
-0.000908083
-0.0020709
-0.00363954
-0.00534541
-0.00694006
-0.00823628
-0.00910772
-0.00945099
-0.00920433
-0.00831216
-0.00674609
-0.00454419
-0.00182082
0.00111934
0.00376937
0.00557078
0.00630814
0.000266921
-8.14521e-05
-0.00073875
-0.00183441
-0.00333157
-0.00503661
-0.0067452
-0.00828849
-0.00953521
-0.0103553
-0.0106739
-0.0104568
-0.00967683
-0.00832257
-0.0064094
-0.00400956
-0.00130605
0.00136212
0.00349864
0.00458447
6.11421e-06
-0.000579437
-0.00166309
-0.0031825
-0.00495479
-0.00677159
-0.0084709
-0.00993013
-0.0110497
-0.0117658
-0.0120423
-0.011854
-0.0111808
-0.0100231
-0.00839482
-0.00634283
-0.00396986
-0.00148248
0.000721971
0.00192457
-0.000846195
-0.00163562
-0.00302168
-0.00478718
-0.00668346
-0.00851229
-0.0101411
-0.0114836
-0.0124847
-0.013114
-0.0133526
-0.0131877
-0.0126133
-0.0116352
-0.0102686
-0.00854648
-0.00652931
-0.00434447
-0.00228416
-0.00110376
-0.00224896
-0.00313611
-0.00463326
-0.00645009
-0.00833129
-0.0100888
-0.0116111
-0.0128372
-0.013737
-0.0142946
-0.0145017
-0.0143565
-0.0138635
-0.013035
-0.0118895
-0.0104539
-0.00877051
-0.00693076
-0.00520195
-0.00406757
-0.00390226
-0.00479627
-0.00625372
-0.00799865
-0.00978287
-0.0114269
-0.0128324
-0.013952
-0.0147668
-0.0152683
-0.0154545
-0.0153287
-0.0149007
-0.0141882
-0.013215
-0.0120087
-0.0106084
-0.00909064
-0.00770192
-0.00667636
-0.0054653
-0.00631424
-0.00766566
-0.00929398
-0.0109559
-0.0124811
-0.0137795
-0.0148106
-0.0155598
-0.0160218
-0.0161966
-0.0160891
-0.0157108
-0.0150829
-0.0142351
-0.0132007
-0.0120211
-0.0107689
-0.00967793
-0.00875415
-0.00669279
-0.00748816
-0.00872252
-0.0102393
-0.0117919
-0.0132185
-0.014435
-0.0154029
-0.016108
-0.0165455
-0.0167152
-0.0166218
-0.0162772
-0.0157041
-0.0149381
-0.0140217
-0.0130033
-0.0119397
-0.0110713
-0.0102333
-0.00748033
-0.0081965
-0.00933871
-0.0107801
-0.0122555
-0.0136183
-0.0147866
-0.0157203
-0.0164032
-0.0168291
-0.0169974
-0.0169117
-0.0165839
-0.0160377
-0.0153132
-0.0144636
-0.0135504
-0.0125948
-0.0119012
-0.0110635
-0.00777988
-0.0084147
-0.00950094
-0.0108966
-0.0123325
-0.0136707
-0.0148267
-0.0157556
-0.0164374
-0.0168639
-0.0170331
-0.016948
-0.0166201
-0.016074
-0.0153543
-0.0145222
-0.0136586
-0.0127211
-0.0121968
-0.0112258
-0.0075858
-0.00817288
-0.00922261
-0.0105964
-0.0120272
-0.0133747
-0.0145509
-0.0155033
-0.0162054
-0.016645
-0.0168181
-0.0167264
-0.0163818
-0.0158104
-0.0150617
-0.0142055
-0.0133217
-0.0123576
-0.0120045
-0.0107237
-0.00698291
-0.00754405
-0.00856567
-0.00991292
-0.0113582
-0.0127403
-0.0139641
-0.014966
-0.0157093
-0.0161755
-0.0163568
-0.016253
-0.0158769
-0.0152565
-0.014447
-0.0135218
-0.0125747
-0.0115932
-0.0112608
-0.00965463
-0.00610149
-0.00662764
-0.00760211
-0.00890127
-0.0103513
-0.0117814
-0.0130762
-0.0141529
-0.0149597
-0.0154681
-0.0156651
-0.0155474
-0.0151279
-0.0144374
-0.0135378
-0.0125065
-0.0114657
-0.0104278
-0.00999814
-0.00816266
-0.00510568
-0.00555981
-0.00642524
-0.00763142
-0.00905945
-0.0105399
-0.0119232
-0.0130969
-0.0139884
-0.0145562
-0.0147807
-0.0146535
-0.0141845
-0.0134082
-0.0123931
-0.0112192
-0.0100368
-0.00886236
-0.00828973
-0.00626258
-0.00419466
-0.00448333
-0.00511876
-0.00615784
-0.00753576
-0.00906674
-0.0105535
-0.011845
-0.0128441
-0.0134928
-0.0137631
-0.0136439
-0.013134
-0.0122685
-0.0111191
-0.00975846
-0.00835525
-0.00691797
-0.00607441
-0.00356984
-0.00355745
-0.0035238
-0.00379726
-0.00460377
-0.00591073
-0.00748857
-0.00908396
-0.0105057
-0.0116312
-0.0123817
-0.0127174
-0.0126182
-0.0121045
-0.0111671
-0.00987496
-0.00827316
-0.00652182
-0.00457994
-0.00296639
0.00102401
-0.0032406
-0.00268608
-0.00251285
-0.00307336
-0.00430834
-0.00592424
-0.00762575
-0.00918864
-0.0104616
-0.0113434
-0.0117813
-0.0117446
-0.0112413
-0.0102618
-0.00883765
-0.00693725
-0.00465949
-0.00173102
0.00175506
0.00910625
-0.00318763
-0.00194886
-0.00143918
-0.00184143
-0.00301913
-0.00465379
-0.00643754
-0.00812418
-0.00953369
-0.010547
-0.0110966
-0.0111479
-0.0106868
-0.00968895
-0.00814107
-0.0059203
-0.00288304
0.00178906
0.00871269
0.0211384
-0.00359155
-0.000729031
-1.0723e-06
-0.000556263
-0.00178463
-0.00345837
-0.00532522
-0.00712623
-0.00866043
-0.00978989
-0.0104361
-0.0105541
-0.0101182
-0.00910636
-0.00748619
-0.00507337
-0.000968166
0.00611459
0.0177436
0.0340541
)
;

boundaryField
{
    movingWall
    {
        type            zeroGradient;
    }
    fixedWalls
    {
        type            zeroGradient;
    }
    frontAndBack
    {
        type            empty;
    }
}


// ************************************************************************* //
