/*--------------------------------*- C++ -*----------------------------------*\
| =========                 |                                                 |
| \\      /  F ield         | OpenFOAM: The Open Source CFD Toolbox           |
|  \\    /   O peration     | Version:  5.x                                   |
|   \\  /    A nd           | Web:      www.OpenFOAM.org                      |
|    \\/     M anipulation  |                                                 |
\*---------------------------------------------------------------------------*/
FoamFile
{
    version     2.0;
    format      ascii;
    class       surfaceScalarField;
    location    "13";
    object      phi;
}
// * * * * * * * * * * * * * * * * * * * * * * * * * * * * * * * * * * * * * //

dimensions      [0 3 -1 0 0 0 0];

internalField   nonuniform List<scalar> 
760
(
1.35382e-07
-1.35378e-07
-1.38078e-07
2.7346e-07
-9.7176e-07
8.33682e-07
-2.26513e-06
1.29337e-06
-3.65966e-06
1.39453e-06
-4.91166e-06
1.252e-06
-5.97276e-06
1.06111e-06
-6.8157e-06
8.42935e-07
-7.43406e-06
6.18366e-07
-7.83542e-06
4.01356e-07
-8.03157e-06
1.96151e-07
-8.01118e-06
-2.0392e-08
-7.79017e-06
-2.21009e-07
-7.35891e-06
-4.31265e-07
-6.65518e-06
-7.03722e-07
-5.65565e-06
-9.99533e-07
-4.30869e-06
-1.34696e-06
-2.67217e-06
-1.63652e-06
-9.85537e-07
-1.68663e-06
-9.85537e-07
-4.22275e-07
2.86897e-07
-1.42836e-06
1.27955e-06
-2.77621e-06
2.18153e-06
-4.02408e-06
2.54124e-06
-5.09475e-06
2.4652e-06
-6.0419e-06
2.19915e-06
-6.8213e-06
1.8405e-06
-7.4278e-06
1.44944e-06
-7.87549e-06
1.06605e-06
-8.16374e-06
6.89604e-07
-8.27566e-06
3.08074e-07
-8.21451e-06
-8.1545e-08
-7.97676e-06
-4.58758e-07
-7.53897e-06
-8.69055e-07
-6.90041e-06
-1.34229e-06
-6.01876e-06
-1.88118e-06
-4.86368e-06
-2.50205e-06
-3.37873e-06
-3.12147e-06
-1.62758e-06
-3.43778e-06
-2.61312e-06
-1.01864e-06
1.30554e-06
-2.3381e-06
2.59901e-06
-3.50664e-06
3.35006e-06
-4.48911e-06
3.52371e-06
-5.32086e-06
3.29695e-06
-6.0101e-06
2.8884e-06
-6.55628e-06
2.38668e-06
-6.95216e-06
1.84532e-06
-7.2076e-06
1.3215e-06
-7.3284e-06
8.10408e-07
-7.33299e-06
3.12658e-07
-7.23064e-06
-1.8389e-07
-7.00262e-06
-6.86784e-07
-6.63091e-06
-1.24076e-06
-6.10521e-06
-1.86799e-06
-5.39703e-06
-2.58936e-06
-4.48444e-06
-3.41463e-06
-3.31221e-06
-4.2937e-06
-1.81253e-06
-4.93747e-06
-4.42564e-06
-1.24536e-06
2.5509e-06
-2.4608e-06
3.81445e-06
-3.45323e-06
4.34249e-06
-4.23581e-06
4.3063e-06
-4.85898e-06
3.92012e-06
-5.33883e-06
3.36825e-06
-5.68911e-06
2.73695e-06
-5.93449e-06
2.0907e-06
-6.08288e-06
1.46988e-06
-6.14292e-06
8.7045e-07
-6.11711e-06
2.86849e-07
-6.00515e-06
-2.95845e-07
-5.79558e-06
-8.96363e-07
-5.48701e-06
-1.54933e-06
-5.06923e-06
-2.28577e-06
-4.52096e-06
-3.13763e-06
-3.81512e-06
-4.12046e-06
-2.90491e-06
-5.20391e-06
-1.65446e-06
-6.18792e-06
-6.0801e-06
-1.17661e-06
3.7275e-06
-2.21314e-06
4.85098e-06
-3.02803e-06
5.15738e-06
-3.6519e-06
4.93016e-06
-4.12248e-06
4.39069e-06
-4.46438e-06
3.71015e-06
-4.70381e-06
2.97638e-06
-4.86426e-06
2.25115e-06
-4.95203e-06
1.55766e-06
-4.97196e-06
8.90379e-07
-4.9247e-06
2.39584e-07
-4.80955e-06
-4.10988e-07
-4.62323e-06
-1.08269e-06
-4.36728e-06
-1.80528e-06
-4.03904e-06
-2.61401e-06
-3.62576e-06
-3.55091e-06
-3.09368e-06
-4.65254e-06
-2.3819e-06
-5.9157e-06
-1.39249e-06
-7.17732e-06
-7.4726e-06
-9.69457e-07
4.69696e-06
-1.80682e-06
5.68834e-06
-2.46004e-06
5.81061e-06
-2.94897e-06
5.41909e-06
-3.30575e-06
4.74747e-06
-3.55764e-06
3.96204e-06
-3.73132e-06
3.15006e-06
-3.84347e-06
2.36331e-06
-3.8995e-06
1.61369e-06
-3.90237e-06
8.93242e-07
-3.85209e-06
1.89312e-07
-3.74753e-06
-5.15558e-07
-3.58798e-06
-1.24223e-06
-3.37644e-06
-2.01682e-06
-3.11672e-06
-2.87373e-06
-2.80771e-06
-3.85992e-06
-2.43112e-06
-5.02913e-06
-1.92152e-06
-6.42529e-06
-1.13544e-06
-7.96341e-06
-8.60803e-06
-7.36119e-07
5.43308e-06
-1.36478e-06
6.317e-06
-1.86015e-06
6.30597e-06
-2.22792e-06
5.78687e-06
-2.49519e-06
5.01474e-06
-2.68453e-06
4.15138e-06
-2.81614e-06
3.28167e-06
-2.90124e-06
2.44841e-06
-2.94436e-06
1.6568e-06
-2.94722e-06
8.96108e-07
-2.90846e-06
1.50543e-07
-2.82585e-06
-5.98164e-07
-2.69842e-06
-1.36966e-06
-2.5296e-06
-2.18564e-06
-2.32715e-06
-3.07618e-06
-2.09691e-06
-4.09016e-06
-1.83019e-06
-5.29585e-06
-1.4744e-06
-6.78109e-06
-9.34992e-07
-8.50281e-06
-9.54303e-06
-4.8488e-07
5.91796e-06
-9.27491e-07
6.75961e-06
-1.27315e-06
6.65164e-06
-1.53223e-06
6.04595e-06
-1.72418e-06
5.20669e-06
-1.86414e-06
4.29134e-06
-1.96492e-06
3.38245e-06
-2.03318e-06
2.51667e-06
-2.07194e-06
1.69556e-06
-2.0817e-06
9.05867e-07
-2.06033e-06
1.29174e-07
-2.0052e-06
-6.53297e-07
-1.9151e-06
-1.45976e-06
-1.79317e-06
-2.30757e-06
-1.6489e-06
-3.22044e-06
-1.49336e-06
-4.24571e-06
-1.32361e-06
-5.46559e-06
-1.09624e-06
-7.00846e-06
-7.228e-07
-8.87626e-06
-1.02658e-05
-2.63275e-07
6.18123e-06
-5.16884e-07
7.01322e-06
-7.15068e-07
6.84982e-06
-8.73686e-07
6.20457e-06
-9.9688e-07
5.32989e-06
-1.09201e-06
4.38647e-06
-1.16512e-06
3.45555e-06
-1.21874e-06
2.5703e-06
-1.25412e-06
1.73094e-06
-1.27104e-06
9.22789e-07
-1.26777e-06
1.25903e-07
-1.24204e-06
-6.79033e-07
-1.19287e-06
-1.50893e-06
-1.12289e-06
-2.37755e-06
-1.04146e-06
-3.30187e-06
-9.61906e-07
-4.32526e-06
-8.85008e-07
-5.54249e-06
-7.78947e-07
-7.11452e-06
-5.69882e-07
-9.08532e-06
-1.08357e-05
-4.46249e-08
6.22586e-06
-1.2677e-07
7.09536e-06
-1.93839e-07
6.91689e-06
-2.52358e-07
6.26309e-06
-3.04931e-07
5.38246e-06
-3.53446e-07
4.43499e-06
-3.96976e-07
3.49908e-06
-4.33988e-07
2.60731e-06
-4.63844e-07
1.7608e-06
-4.8611e-07
9.45054e-07
-5.00073e-07
1.39866e-07
-5.0462e-07
-6.74486e-07
-4.99593e-07
-1.51395e-06
-4.87124e-07
-2.39002e-06
-4.75365e-07
-3.31363e-06
-4.76992e-07
-4.32363e-06
-4.99344e-07
-5.52014e-06
-5.03318e-07
-7.11054e-06
-4.21074e-07
-9.16756e-06
-1.12568e-05
1.73617e-07
6.05224e-06
2.63153e-07
7.00583e-06
3.29057e-07
6.85098e-06
3.5732e-07
6.23482e-06
3.70757e-07
5.36902e-06
3.69899e-07
4.43585e-06
3.59117e-07
3.50986e-06
3.42121e-07
2.6243e-06
3.20631e-07
1.78229e-06
2.9497e-07
9.70715e-07
2.6473e-07
1.70106e-07
2.29544e-07
-6.39299e-07
1.88553e-07
-1.47296e-06
1.39862e-07
-2.34133e-06
7.67684e-08
-3.25054e-06
-1.50778e-08
-4.23179e-06
-1.33792e-07
-5.40142e-06
-2.60754e-07
-6.98358e-06
-3.14352e-07
-9.11397e-06
-1.15711e-05
3.82344e-07
5.6699e-06
6.34848e-07
6.75332e-06
8.26045e-07
6.65979e-06
9.51744e-07
6.10913e-06
1.03795e-06
5.28281e-06
1.09153e-06
4.38227e-06
1.11952e-06
3.48187e-06
1.12733e-06
2.6165e-06
1.11758e-06
1.79204e-06
1.09048e-06
9.97814e-07
1.04438e-06
2.16206e-07
9.77374e-07
-5.72292e-07
8.8689e-07
-1.38248e-06
7.70774e-07
-2.22521e-06
6.24822e-07
-3.10459e-06
4.42128e-07
-4.04909e-06
2.06834e-07
-5.16613e-06
-6.3058e-08
-6.71369e-06
-1.7873e-07
-8.99829e-06
-1.17499e-05
5.83488e-07
5.08641e-06
9.95935e-07
6.34088e-06
1.30849e-06
6.34723e-06
1.53572e-06
5.8819e-06
1.70172e-06
5.11681e-06
1.81898e-06
4.265e-06
1.89446e-06
3.40639e-06
1.93411e-06
2.57685e-06
1.94112e-06
1.78503e-06
1.91565e-06
1.02328e-06
1.85492e-06
2.76939e-07
1.75586e-06
-4.73237e-07
1.61437e-06
-1.24098e-06
1.42737e-06
-2.03821e-06
1.19225e-06
-2.86947e-06
9.03698e-07
-3.76054e-06
5.4949e-07
-4.81192e-06
1.90303e-07
-6.3545e-06
-1.74059e-08
-8.79058e-06
-1.17673e-05
7.55235e-07
4.33117e-06
1.31857e-06
5.77754e-06
1.75028e-06
5.91552e-06
2.09578e-06
5.5364e-06
2.35778e-06
4.85481e-06
2.55272e-06
4.07007e-06
2.6881e-06
3.27102e-06
2.76971e-06
2.49523e-06
2.80101e-06
1.75373e-06
2.78205e-06
1.04225e-06
2.70903e-06
3.49956e-07
2.57748e-06
-3.41685e-07
2.38304e-06
-1.04654e-06
2.12101e-06
-1.77618e-06
1.7893e-06
-2.53776e-06
1.39004e-06
-3.36128e-06
9.22361e-07
-4.34424e-06
4.63163e-07
-5.89531e-06
1.4271e-07
-8.47013e-06
-1.16246e-05
9.00699e-07
3.43047e-06
1.58476e-06
5.09348e-06
2.14116e-06
5.35913e-06
2.61511e-06
5.06244e-06
2.99296e-06
4.47696e-06
3.28234e-06
3.78069e-06
3.49221e-06
3.06115e-06
3.62862e-06
2.35882e-06
3.69444e-06
1.6879e-06
3.68992e-06
1.04677e-06
3.60977e-06
4.30106e-07
3.44665e-06
-1.78564e-07
3.19934e-06
-7.99238e-07
2.86022e-06
-1.43706e-06
2.42685e-06
-2.10439e-06
1.911e-06
-2.84543e-06
1.31743e-06
-3.75067e-06
7.3181e-07
-5.30969e-06
2.91724e-07
-8.03004e-06
-1.13328e-05
9.22567e-07
2.50791e-06
1.71971e-06
4.29634e-06
2.42532e-06
4.65352e-06
3.04938e-06
4.43838e-06
3.56903e-06
3.95731e-06
3.9775e-06
3.37222e-06
4.28176e-06
2.75689e-06
4.48937e-06
2.15121e-06
4.60251e-06
1.57476e-06
4.62242e-06
1.02686e-06
4.54611e-06
5.06417e-07
4.35631e-06
1.1233e-08
4.06228e-06
-5.05204e-07
3.65101e-06
-1.0258e-06
3.11875e-06
-1.57212e-06
2.48561e-06
-2.21229e-06
1.75598e-06
-3.02103e-06
1.032e-06
-4.58571e-06
4.63052e-07
-7.4611e-06
-1.08698e-05
8.24829e-07
1.68308e-06
1.68898e-06
3.43219e-06
2.5683e-06
3.7742e-06
3.36658e-06
3.6401e-06
4.04594e-06
3.27794e-06
4.5957e-06
2.82247e-06
5.01527e-06
2.33732e-06
5.31093e-06
1.85555e-06
5.48491e-06
1.40078e-06
5.53897e-06
9.72794e-07
5.47005e-06
5.7534e-07
5.2885e-06
1.92781e-07
4.9632e-06
-1.79902e-07
4.50831e-06
-5.7091e-07
3.90576e-06
-9.69572e-07
3.18218e-06
-1.48872e-06
2.33057e-06
-2.16942e-06
1.46163e-06
-3.71677e-06
6.83658e-07
-6.68313e-06
-1.01861e-05
3.86156e-07
1.29692e-06
1.38034e-06
2.438e-06
2.43835e-06
2.71619e-06
3.4339e-06
2.64455e-06
4.29376e-06
2.41808e-06
5.00615e-06
2.11008e-06
5.56694e-06
1.77653e-06
5.97689e-06
1.4456e-06
6.24181e-06
1.13586e-06
6.36739e-06
8.4722e-07
6.35629e-06
5.8643e-07
6.21575e-06
3.33328e-07
5.93996e-06
9.58905e-08
5.52316e-06
-1.54113e-07
4.93905e-06
-3.85467e-07
4.22681e-06
-7.76475e-07
3.33419e-06
-1.2768e-06
2.35707e-06
-2.73965e-06
1.16362e-06
-5.48968e-06
-9.0225e-06
-5.26653e-07
1.82357e-06
6.16804e-07
1.29455e-06
2.02158e-06
1.31141e-06
3.30154e-06
1.36459e-06
4.40519e-06
1.31443e-06
5.33596e-06
1.1793e-06
6.09413e-06
1.01835e-06
6.67827e-06
8.6147e-07
7.10199e-06
7.12137e-07
7.37301e-06
5.76207e-07
7.5083e-06
4.51136e-07
7.50865e-06
3.32977e-07
7.38003e-06
2.24518e-07
7.11815e-06
1.07762e-07
6.72641e-06
6.27771e-09
6.19735e-06
-2.4742e-07
5.47036e-06
-5.49804e-07
4.50401e-06
-1.7733e-06
2.51834e-06
-3.50401e-06
-6.50416e-06
1.82357e-06
3.11812e-06
4.42953e-06
5.79412e-06
7.10855e-06
8.28786e-06
9.30621e-06
1.01677e-05
1.08798e-05
1.1456e-05
1.19072e-05
1.22401e-05
1.24647e-05
1.25724e-05
1.25787e-05
1.23313e-05
1.17815e-05
1.00082e-05
6.50416e-06
)
;

boundaryField
{
    movingWall
    {
        type            calculated;
        value           uniform 0;
    }
    fixedWalls
    {
        type            calculated;
        value           uniform 0;
    }
    frontAndBack
    {
        type            empty;
        value           nonuniform 0();
    }
}


// ************************************************************************* //
