/*--------------------------------*- C++ -*----------------------------------*\
| =========                 |                                                 |
| \\      /  F ield         | OpenFOAM: The Open Source CFD Toolbox           |
|  \\    /   O peration     | Version:  5.x                                   |
|   \\  /    A nd           | Web:      www.OpenFOAM.org                      |
|    \\/     M anipulation  |                                                 |
\*---------------------------------------------------------------------------*/
FoamFile
{
    version     2.0;
    format      ascii;
    class       volVectorField;
    location    "13";
    object      U;
}
// * * * * * * * * * * * * * * * * * * * * * * * * * * * * * * * * * * * * * //

dimensions      [0 1 -1 0 0 0 0];

internalField   nonuniform List<vector> 
400
(
(0.0027568 -0.00358631 0)
(0.00180597 -0.000557798 0)
(-0.00602368 0.00487638 0)
(-0.0287815 0.0111417 0)
(-0.0629688 0.0139427 0)
(-0.089233 0.0121472 0)
(-0.112932 0.0103866 0)
(-0.130653 0.0080162 0)
(-0.14484 0.00589764 0)
(-0.154317 0.003544 0)
(-0.159759 0.00158244 0)
(-0.16169 -0.000544008 0)
(-0.159388 -0.00395436 0)
(-0.151969 -0.00621754 0)
(-0.139569 -0.00960584 0)
(-0.121027 -0.0123927 0)
(-0.0969151 -0.0156326 0)
(-0.0677598 -0.0169939 0)
(-0.0365629 -0.0145159 0)
(-0.00898869 -0.00245929 0)
(-0.00249961 -0.00135678 0)
(-0.0137446 0.0132679 0)
(-0.0398975 0.0314687 0)
(-0.0691438 0.0399969 0)
(-0.0938448 0.0389685 0)
(-0.11404 0.0349589 0)
(-0.131174 0.0295051 0)
(-0.143905 0.0236731 0)
(-0.154467 0.0170637 0)
(-0.161597 0.0109179 0)
(-0.165616 0.00496629 0)
(-0.166028 -0.000984228 0)
(-0.162803 -0.0074656 0)
(-0.155844 -0.0145821 0)
(-0.144618 -0.0230676 0)
(-0.128446 -0.0326789 0)
(-0.107353 -0.0433369 0)
(-0.0813457 -0.0523313 0)
(-0.0505506 -0.0532944 0)
(-0.0183863 -0.0324843 0)
(-0.00913255 0.015496 0)
(-0.0325031 0.0412007 0)
(-0.0590061 0.0567097 0)
(-0.0819594 0.0608374 0)
(-0.100113 0.057263 0)
(-0.115088 0.050159 0)
(-0.127113 0.041308 0)
(-0.136286 0.0318734 0)
(-0.142807 0.0231254 0)
(-0.146097 0.0144105 0)
(-0.14734 0.00568684 0)
(-0.146232 -0.00315207 0)
(-0.143088 -0.0123097 0)
(-0.136886 -0.0222736 0)
(-0.127745 -0.0336512 0)
(-0.114909 -0.0468443 0)
(-0.0980366 -0.0621119 0)
(-0.0768812 -0.078254 0)
(-0.0502212 -0.0887957 0)
(-0.021165 -0.0751622 0)
(-0.0132215 0.0392892 0)
(-0.0381949 0.0648138 0)
(-0.0612554 0.0770329 0)
(-0.0790366 0.0780265 0)
(-0.0925907 0.0719114 0)
(-0.103349 0.0623312 0)
(-0.111318 0.0510207 0)
(-0.117087 0.0392438 0)
(-0.120809 0.0277555 0)
(-0.122784 0.0165469 0)
(-0.123124 0.00570215 0)
(-0.121712 -0.00519331 0)
(-0.118487 -0.0165223 0)
(-0.113228 -0.028852 0)
(-0.105894 -0.0427779 0)
(-0.0960835 -0.0588564 0)
(-0.0830962 -0.077303 0)
(-0.0662177 -0.0973452 0)
(-0.0438716 -0.114323 0)
(-0.0194729 -0.109841 0)
(-0.0134486 0.0616819 0)
(-0.03615 0.0860144 0)
(-0.0548213 0.0944742 0)
(-0.0687887 0.092131 0)
(-0.0791437 0.0831279 0)
(-0.0869131 0.070925 0)
(-0.0923657 0.057284 0)
(-0.0962122 0.0435235 0)
(-0.0985892 0.0302699 0)
(-0.0996354 0.0175254 0)
(-0.0993404 0.00514554 0)
(-0.0976895 -0.00725831 0)
(-0.0946429 -0.0200995 0)
(-0.0901681 -0.0340041 0)
(-0.0842732 -0.0496729 0)
(-0.0768422 -0.0678855 0)
(-0.0672335 -0.0892232 0)
(-0.0542466 -0.113355 0)
(-0.0359276 -0.136383 0)
(-0.0169878 -0.139233 0)
(-0.0114929 0.0824618 0)
(-0.0301916 0.104541 0)
(-0.0448703 0.109218 0)
(-0.0558534 0.103408 0)
(-0.0637147 0.0914872 0)
(-0.0694162 0.07688 0)
(-0.0733607 0.0613974 0)
(-0.0761235 0.0462234 0)
(-0.0777422 0.0317293 0)
(-0.0783019 0.017792 0)
(-0.077807 0.00419178 0)
(-0.0762376 -0.00941527 0)
(-0.0735641 -0.0234435 0)
(-0.0698062 -0.038466 0)
(-0.0650413 -0.0552008 0)
(-0.0593123 -0.0745565 0)
(-0.0523346 -0.0975144 0)
(-0.042953 -0.124536 0)
(-0.0305514 -0.153456 0)
(-0.0109479 -0.163252 0)
(-0.0094165 0.0999386 0)
(-0.0229034 0.119532 0)
(-0.0341189 0.121004 0)
(-0.0423758 0.112097 0)
(-0.0481817 0.0977288 0)
(-0.0523951 0.0812423 0)
(-0.055354 0.0644027 0)
(-0.0574433 0.0481654 0)
(-0.0586753 0.0327002 0)
(-0.0591154 0.017827 0)
(-0.0587434 0.00327113 0)
(-0.0575138 -0.011327 0)
(-0.0553789 -0.0263596 0)
(-0.0523682 -0.0423061 0)
(-0.048597 -0.0598306 0)
(-0.0441913 -0.0799122 0)
(-0.0391399 -0.103788 0)
(-0.0323693 -0.1329 0)
(-0.0249164 -0.165962 0)
(-0.00828371 -0.183408 0)
(-0.00648481 0.113205 0)
(-0.0154278 0.130854 0)
(-0.0235499 0.129788 0)
(-0.0292729 0.118529 0)
(-0.0333223 0.102383 0)
(-0.0363384 0.0845508 0)
(-0.0385465 0.0667219 0)
(-0.0401694 0.0496862 0)
(-0.0412004 0.0335051 0)
(-0.0416736 0.0179414 0)
(-0.0415503 0.00265739 0)
(-0.0407686 -0.0127208 0)
(-0.0392741 -0.0285577 0)
(-0.037097 -0.0452388 0)
(-0.03437 -0.0633118 0)
(-0.0312703 -0.0837581 0)
(-0.027951 -0.10807 0)
(-0.0234673 -0.138517 0)
(-0.0203205 -0.174624 0)
(-0.00440447 -0.199293 0)
(-0.00410742 0.121455 0)
(-0.00845394 0.138099 0)
(-0.013485 0.135434 0)
(-0.0168305 0.122831 0)
(-0.0192812 0.105594 0)
(-0.0212268 0.0869315 0)
(-0.0227557 0.0684735 0)
(-0.0239641 0.0509092 0)
(-0.0248225 0.034251 0)
(-0.0253359 0.0182154 0)
(-0.0254643 0.00241901 0)
(-0.0251519 -0.0135248 0)
(-0.0243541 -0.029954 0)
(-0.0230896 -0.047175 0)
(-0.0215016 -0.0655927 0)
(-0.0197965 -0.0861382 0)
(-0.0182774 -0.110585 0)
(-0.0156613 -0.141856 0)
(-0.0165718 -0.180252 0)
(-0.00222977 -0.212095 0)
(-0.000765767 0.125211 0)
(-0.00181999 0.142079 0)
(-0.00399569 0.138423 0)
(-0.00501435 0.125175 0)
(-0.00592977 0.107481 0)
(-0.0068088 0.0884449 0)
(-0.00762489 0.0696822 0)
(-0.00838136 0.0518413 0)
(-0.00902201 0.0349239 0)
(-0.00953084 0.0186277 0)
(-0.00987882 0.00254562 0)
(-0.0100328 -0.0137186 0)
(-0.00997442 -0.0304858 0)
(-0.00971665 -0.0479985 0)
(-0.00939016 -0.0665272 0)
(-0.00919716 -0.0869058 0)
(-0.00972957 -0.111147 0)
(-0.00865736 -0.142798 0)
(-0.0135087 -0.182916 0)
(0.000670985 -0.221644 0)
(0.001669 0.123849 0)
(0.00424332 0.14214 0)
(0.00527655 0.138418 0)
(0.00640908 0.125423 0)
(0.00700456 0.107848 0)
(0.00724765 0.0889423 0)
(0.00721889 0.0702442 0)
(0.00698952 0.0524055 0)
(0.0066342 0.0354635 0)
(0.00618129 0.0191339 0)
(0.00564603 0.00301373 0)
(0.00503293 -0.0132956 0)
(0.00432502 -0.0301041 0)
(0.00350908 -0.0476233 0)
(0.00244426 -0.0660136 0)
(0.0010071 -0.0859781 0)
(-0.00175305 -0.109703 0)
(-0.002108 -0.141334 0)
(-0.0110873 -0.183411 0)
(0.00291615 -0.228589 0)
(0.00376178 0.119249 0)
(0.0102912 0.139014 0)
(0.0138984 0.136224 0)
(0.0173606 0.124269 0)
(0.0196657 0.107066 0)
(0.0211723 0.0885705 0)
(0.0220758 0.0701877 0)
(0.0224901 0.0525851 0)
(0.0225075 0.0358423 0)
(0.0221669 0.0197137 0)
(0.0214711 0.00381939 0)
(0.0204013 -0.0122346 0)
(0.0188979 -0.0287578 0)
(0.0169539 -0.0459558 0)
(0.0143803 -0.0639182 0)
(0.0111635 -0.0832299 0)
(0.00617068 -0.106103 0)
(0.00427675 -0.137388 0)
(-0.00897216 -0.181646 0)
(0.00623637 -0.232771 0)
(0.00611497 0.110062 0)
(0.0158418 0.132329 0)
(0.0225327 0.130773 0)
(0.0279634 0.12056 0)
(0.0321854 0.104457 0)
(0.0351184 0.0868316 0)
(0.0371298 0.0691671 0)
(0.0383479 0.0521495 0)
(0.0388638 0.0359218 0)
(0.0387206 0.0202974 0)
(0.0379078 0.00494433 0)
(0.0363951 -0.0105099 0)
(0.0340682 -0.0263678 0)
(0.0309388 -0.0428597 0)
(0.0267072 -0.0600525 0)
(0.0216519 -0.0784665 0)
(0.0144044 -0.100199 0)
(0.0105159 -0.131156 0)
(-0.00689306 -0.178043 0)
(0.0100247 -0.234959 0)
(0.00801639 0.0970116 0)
(0.0208997 0.123328 0)
(0.0303299 0.124091 0)
(0.0380312 0.115335 0)
(0.0443419 0.100671 0)
(0.0490175 0.084116 0)
(0.0524183 0.0673849 0)
(0.0546776 0.0511935 0)
(0.0558747 0.0357387 0)
(0.0560582 0.0208992 0)
(0.0551999 0.0064039 0)
(0.0532711 -0.00809339 0)
(0.050085 -0.0228862 0)
(0.0457282 -0.0382448 0)
(0.0397045 -0.0542791 0)
(0.0327396 -0.0715144 0)
(0.0229514 -0.0919762 0)
(0.0169952 -0.123017 0)
(-0.00433318 -0.172997 0)
(0.0149578 -0.235484 0)
(0.0098916 0.0803977 0)
(0.0251863 0.110047 0)
(0.0371165 0.11351 0)
(0.0472212 0.106649 0)
(0.0558329 0.093988 0)
(0.0626208 0.0791133 0)
(0.0677483 0.0638555 0)
(0.0713429 0.0490042 0)
(0.0734572 0.0348088 0)
(0.0741547 0.0212115 0)
(0.0733759 0.00801944 0)
(0.0711028 -0.00507222 0)
(0.0670491 -0.0183198 0)
(0.0614747 -0.0320522 0)
(0.0535509 -0.0464478 0)
(0.044604 -0.062221 0)
(0.031954 -0.0813172 0)
(0.0239947 -0.112658 0)
(-0.00178047 -0.166316 0)
(0.0205537 -0.235375 0)
(0.0100949 0.0606884 0)
(0.0277121 0.0958762 0)
(0.0417633 0.102311 0)
(0.0543846 0.0971215 0)
(0.0657787 0.0862798 0)
(0.0752487 0.0731828 0)
(0.0825856 0.0595435 0)
(0.0878837 0.0462206 0)
(0.0912091 0.0335314 0)
(0.092658 0.0214538 0)
(0.0921467 0.00989992 0)
(0.0896928 -0.00149679 0)
(0.084854 -0.0127388 0)
(0.0782183 -0.0243474 0)
(0.0683981 -0.0365738 0)
(0.0575904 -0.0505327 0)
(0.0418979 -0.0679931 0)
(0.0319951 -0.0998515 0)
(0.000729759 -0.158009 0)
(0.0274864 -0.232355 0)
(0.00933021 0.0409074 0)
(0.0269823 0.076106 0)
(0.043264 0.0845771 0)
(0.0588734 0.0815689 0)
(0.0734493 0.0732033 0)
(0.0860813 0.0627511 0)
(0.0960917 0.0516576 0)
(0.103482 0.0407119 0)
(0.108293 0.0303427 0)
(0.110762 0.0205309 0)
(0.110626 0.0112868 0)
(0.108353 0.00224512 0)
(0.103113 -0.00650497 0)
(0.0959957 -0.0155505 0)
(0.0847158 -0.0250256 0)
(0.072761 -0.0367072 0)
(0.0542159 -0.0519575 0)
(0.0423497 -0.0844497 0)
(0.00505098 -0.146237 0)
(0.0369701 -0.221589 0)
(-0.000412138 0.025071 0)
(0.0200979 0.0607031 0)
(0.0386229 0.0687212 0)
(0.0579552 0.0669091 0)
(0.0764618 0.0605718 0)
(0.0925647 0.0525294 0)
(0.105668 0.043916 0)
(0.115679 0.0353013 0)
(0.122504 0.0272021 0)
(0.126696 0.0196435 0)
(0.12772 0.0127351 0)
(0.126606 0.00618792 0)
(0.12194 8.50512e-05 0)
(0.115948 -0.006324 0)
(0.104718 -0.0127552 0)
(0.0936871 -0.0216116 0)
(0.0733391 -0.0339652 0)
(0.0607439 -0.0654465 0)
(0.0183868 -0.126374 0)
(0.0537277 -0.193137 0)
(-0.0137087 0.0290086 0)
(-0.000477801 0.0307818 0)
(0.026586 0.0345724 0)
(0.052807 0.035644 0)
(0.0763921 0.0338661 0)
(0.0970263 0.0299905 0)
(0.114106 0.0255255 0)
(0.127932 0.0210238 0)
(0.138033 0.0167739 0)
(0.145378 0.012752 0)
(0.1492 0.0091986 0)
(0.150999 0.00563747 0)
(0.149122 0.00266378 0)
(0.146018 -0.00117349 0)
(0.137684 -0.00427492 0)
(0.130295 -0.0104697 0)
(0.11186 -0.0186366 0)
(0.102457 -0.0451819 0)
(0.0598458 -0.0915667 0)
(0.0871506 -0.139339 0)
(0.042827 0.0377916 0)
(0.0483926 0.0294536 0)
(0.0703471 0.0269542 0)
(0.100723 0.0267828 0)
(0.127813 0.0258464 0)
(0.152826 0.0238677 0)
(0.174692 0.0212874 0)
(0.194213 0.0188059 0)
(0.210024 0.0163497 0)
(0.223664 0.0142535 0)
(0.233674 0.0121983 0)
(0.242072 0.010524 0)
(0.247067 0.00871448 0)
(0.25084 0.00724551 0)
(0.25121 0.0052678 0)
(0.248361 0.00246515 0)
(0.238705 0.00250715 0)
(0.223585 -0.00895249 0)
(0.175193 -0.0121954 0)
(0.15885 -0.0589001 0)
)
;

boundaryField
{
    movingWall
    {
        type            fixedValue;
        value           uniform (1 0 0);
    }
    fixedWalls
    {
        type            noSlip;
    }
    frontAndBack
    {
        type            empty;
    }
}


// ************************************************************************* //
