/*--------------------------------*- C++ -*----------------------------------*\
| =========                 |                                                 |
| \\      /  F ield         | OpenFOAM: The Open Source CFD Toolbox           |
|  \\    /   O peration     | Version:  5.x                                   |
|   \\  /    A nd           | Web:      www.OpenFOAM.org                      |
|    \\/     M anipulation  |                                                 |
\*---------------------------------------------------------------------------*/
FoamFile
{
    version     2.0;
    format      ascii;
    class       volScalarField;
    location    "19";
    object      epsilon;
}
// * * * * * * * * * * * * * * * * * * * * * * * * * * * * * * * * * * * * * //

dimensions      [0 2 -3 0 0 0 0];

internalField   nonuniform List<scalar> 
400
(
3.11509e-05
9.85671e-05
0.000361965
0.000700412
0.000925068
0.00109901
0.00123887
0.00137307
0.0014902
0.00160964
0.001721
0.00183829
0.00195114
0.00201892
0.00204752
0.00203386
0.00186195
0.00142812
0.000877301
0.00061713
0.000133609
0.000352414
0.000864094
0.00112821
0.00118523
0.00120617
0.0012115
0.00124794
0.00129562
0.00138394
0.0014985
0.00165047
0.0018311
0.00204258
0.00226897
0.00247146
0.00255966
0.0025184
0.00196883
0.00128592
0.000414095
0.000981132
0.00118843
0.00121104
0.00116873
0.00114466
0.00112693
0.00114623
0.00120576
0.00128154
0.00137645
0.00148825
0.00162255
0.00178614
0.00198188
0.00220786
0.00238017
0.00244137
0.00221997
0.00168065
0.000863075
0.00126439
0.00127203
0.00117248
0.00108482
0.00102968
0.00101234
0.00101198
0.00103887
0.00107115
0.00112224
0.00119664
0.00130735
0.00146444
0.0016844
0.0019705
0.00226747
0.0023995
0.00233189
0.00193518
0.00118146
0.00141757
0.00124385
0.00107648
0.000955799
0.000891282
0.000849704
0.000819762
0.000803283
0.000796787
0.000808067
0.000857453
0.000952862
0.00111373
0.0013654
0.00172782
0.00218441
0.00244554
0.00248017
0.00212567
0.00135404
0.00141166
0.00116888
0.000957107
0.000833686
0.000753715
0.000685254
0.00062333
0.000570812
0.000541134
0.000531319
0.000553612
0.000634962
0.000788085
0.00105382
0.00147634
0.0020734
0.00255728
0.00268236
0.00227934
0.00138359
0.00136283
0.00106213
0.000851783
0.000726581
0.000631943
0.000543251
0.000460908
0.000391713
0.000349394
0.000332555
0.000334863
0.000395324
0.000524397
0.000773508
0.00121943
0.00193417
0.00268103
0.00292161
0.0024025
0.0013645
0.0012589
0.000962519
0.000763762
0.00063944
0.000535972
0.000436796
0.000347119
0.000275521
0.00023145
0.000212484
0.000209908
0.000248118
0.000344227
0.00055363
0.00097942
0.00175535
0.00279065
0.00322781
0.00250483
0.00131537
0.00114147
0.000875045
0.000694459
0.000573763
0.000467427
0.000366057
0.000277422
0.000209954
0.000169944
0.00015308
0.000150897
0.000176574
0.000244145
0.000406128
0.000788657
0.00158792
0.00285139
0.00353209
0.00258061
0.00122162
0.00103715
0.000803281
0.000641394
0.000526999
0.000423438
0.000324863
0.000240583
0.000179213
0.000143277
0.000128292
0.000127824
0.000146765
0.000197458
0.000322627
0.000649546
0.00144658
0.00289117
0.00386204
0.00264211
0.00112108
0.000951304
0.0007466
0.00060402
0.000497336
0.000398159
0.000306081
0.000230298
0.000174786
0.000140197
0.000123263
0.000123058
0.000138176
0.00018018
0.000284489
0.000566749
0.00132555
0.00292697
0.00416494
0.00268021
0.0010302
0.000892758
0.000708279
0.000578614
0.000479364
0.000390603
0.00030745
0.000235328
0.00018196
0.000148164
0.000131245
0.000131331
0.000142356
0.000177659
0.000272614
0.000529951
0.00125281
0.00297636
0.004442
0.00270382
0.000935235
0.000853138
0.000686425
0.000570687
0.000480126
0.000395182
0.00031674
0.000250171
0.000200543
0.000168085
0.000150545
0.000150984
0.00016141
0.000194038
0.000279142
0.000519658
0.00122335
0.00304094
0.00463755
0.0027157
0.000842172
0.000832
0.000695083
0.000578793
0.000490326
0.00040999
0.000338277
0.00027843
0.000232084
0.000200629
0.000181452
0.000181867
0.000192308
0.000225559
0.000311478
0.000544094
0.0012213
0.0031362
0.00473545
0.00272098
0.00074186
0.000806885
0.000715294
0.000603767
0.000517499
0.000440909
0.000373178
0.000316963
0.000273215
0.000243364
0.000223578
0.00022436
0.000235964
0.0002725
0.000365236
0.000609556
0.00129112
0.00328511
0.00477118
0.00265688
0.000630742
0.000796407
0.000758748
0.000666638
0.000580077
0.000504225
0.000436193
0.000378914
0.000333381
0.0003024
0.000280995
0.000282533
0.000297119
0.000341556
0.000451169
0.000729305
0.00143961
0.00348211
0.00461089
0.0025491
0.000518405
0.000754343
0.000779434
0.000748309
0.000683127
0.00061061
0.000540067
0.000478148
0.000428198
0.000392767
0.000372406
0.000376939
0.000400206
0.000465715
0.000618245
0.000986155
0.00178071
0.00375268
0.00425082
0.00240248
0.000350967
0.000660775
0.000859483
0.000926868
0.000910471
0.000854982
0.000776351
0.000703549
0.000647405
0.000606129
0.000604534
0.000625609
0.000685517
0.000828879
0.00112273
0.00177484
0.00273502
0.00416262
0.00407611
0.00221724
0.000353287
0.000651221
0.00106694
0.00128588
0.00136566
0.00136544
0.00134642
0.00132495
0.00133586
0.00138074
0.00147941
0.00168004
0.00196018
0.00241923
0.00302667
0.00393532
0.00478722
0.0047047
0.00413225
0.00197514
0.00025694
0.000390106
0.000687353
0.000985133
0.00120724
0.00136086
0.00144479
0.0015007
0.00152544
0.00154435
0.00155071
0.0015621
0.00157161
0.00159252
0.00161106
0.00166471
0.00173717
0.0018282
0.00181005
0.00161474
)
;

boundaryField
{
    movingWall
    {
        Cmu             0.09;
        kappa           0.41;
        E               9.8;
        type            epsilonWallFunction;
        value           nonuniform List<scalar> 
20
(
0.00025694
0.000390106
0.000687353
0.000985133
0.00120724
0.00136086
0.00144479
0.0015007
0.00152544
0.00154435
0.00155071
0.0015621
0.00157161
0.00159252
0.00161106
0.00166471
0.00173717
0.0018282
0.00181005
0.00161474
)
;
    }
    fixedWalls
    {
        Cmu             0.09;
        kappa           0.41;
        E               9.8;
        type            epsilonWallFunction;
        value           nonuniform List<scalar> 
60
(
3.11509e-05
0.000133609
0.000414095
0.000863075
0.00118146
0.00135404
0.00138359
0.0013645
0.00131537
0.00122162
0.00112108
0.0010302
0.000935235
0.000842172
0.00074186
0.000630742
0.000518405
0.000350967
0.000353287
0.00025694
0.00061713
0.00128592
0.00168065
0.00193518
0.00212567
0.00227934
0.0024025
0.00250483
0.00258061
0.00264211
0.00268021
0.00270382
0.0027157
0.00272098
0.00265688
0.0025491
0.00240248
0.00221724
0.00197514
0.00161474
3.11509e-05
9.85671e-05
0.000361965
0.000700412
0.000925068
0.00109901
0.00123887
0.00137307
0.0014902
0.00160964
0.001721
0.00183829
0.00195114
0.00201892
0.00204752
0.00203386
0.00186195
0.00142812
0.000877301
0.00061713
)
;
    }
    frontAndBack
    {
        type            empty;
    }
}


// ************************************************************************* //
