/*--------------------------------*- C++ -*----------------------------------*\
| =========                 |                                                 |
| \\      /  F ield         | OpenFOAM: The Open Source CFD Toolbox           |
|  \\    /   O peration     | Version:  5.x                                   |
|   \\  /    A nd           | Web:      www.OpenFOAM.org                      |
|    \\/     M anipulation  |                                                 |
\*---------------------------------------------------------------------------*/
FoamFile
{
    version     2.0;
    format      ascii;
    class       volScalarField;
    location    "19";
    object      k;
}
// * * * * * * * * * * * * * * * * * * * * * * * * * * * * * * * * * * * * * //

dimensions      [0 2 -2 0 0 0 0];

internalField   nonuniform List<scalar> 
400
(
9.73505e-06
3.08038e-05
0.000113118
0.000218884
0.00028909
0.000343449
0.000387155
0.000429092
0.000465697
0.000503024
0.000537824
0.00057448
0.000609744
0.000630928
0.000639864
0.000635597
0.000581873
0.0004463
0.000274165
0.000192859
4.17544e-05
0.000138434
0.000284734
0.000443771
0.000513158
0.000592499
0.000639644
0.000706685
0.00076251
0.000828446
0.000891578
0.000957828
0.00101711
0.00108153
0.00113209
0.00115521
0.00115665
0.00101123
0.000667455
0.000401863
0.000129408
0.00041421
0.000567322
0.000653395
0.000705971
0.000755672
0.000791834
0.000841494
0.000885531
0.000937225
0.000985461
0.0010348
0.00108275
0.00113492
0.0011828
0.00121171
0.00122061
0.00114941
0.000822519
0.000525218
0.000269715
0.000626745
0.000710853
0.00074809
0.00077298
0.000793549
0.000817037
0.000848805
0.000879404
0.000912384
0.000942319
0.000979454
0.00102707
0.00108663
0.00115689
0.0012173
0.00124205
0.00122678
0.000967299
0.000604762
0.000369211
0.000743722
0.000770379
0.000770803
0.000773738
0.000786151
0.000798423
0.000805133
0.000805333
0.000802798
0.000809645
0.000837565
0.000887595
0.000964556
0.00107181
0.00119994
0.00127532
0.00129104
0.00109177
0.000664291
0.000423142
0.000780223
0.000781563
0.000766969
0.000761998
0.000757535
0.000738096
0.000704912
0.000672925
0.000655597
0.000650235
0.000666398
0.000716839
0.000805399
0.000942714
0.00112875
0.00129803
0.00135765
0.00122023
0.000712314
0.000432378
0.000773175
0.000774923
0.000752826
0.000731746
0.000700125
0.000654541
0.000600358
0.000552489
0.000522844
0.000511285
0.000516193
0.00056118
0.000649577
0.000799545
0.00102656
0.0013034
0.00143221
0.00134177
0.000750805
0.000426413
0.000753499
0.000756911
0.000724458
0.000692019
0.000644649
0.000582982
0.00051744
0.000462052
0.000426753
0.000412156
0.000411535
0.000447333
0.000526297
0.000670756
0.000913439
0.00126324
0.00149907
0.00147534
0.000782783
0.000411061
0.000714132
0.000724885
0.000693947
0.000655849
0.000600117
0.000530912
0.000461485
0.000404851
0.000368623
0.000353117
0.000351715
0.000378995
0.000444202
0.000574341
0.000812934
0.0011987
0.00156052
0.0015924
0.000806457
0.000381761
0.000677831
0.000692978
0.000666148
0.000627138
0.000568914
0.000498592
0.000429887
0.00037541
0.00034026
0.000324831
0.000324782
0.000347129
0.000401663
0.000513513
0.000736285
0.0011337
0.00160894
0.00171119
0.000825731
0.000350345
0.000633188
0.000659198
0.000640801
0.000604498
0.000549447
0.00048221
0.000418958
0.000368321
0.000334126
0.000316806
0.000317467
0.000336502
0.000384113
0.000484537
0.000690079
0.00108283
0.00164353
0.00181156
0.000837306
0.000321945
0.000593334
0.000632037
0.000622059
0.000590611
0.0005398
0.000481489
0.000422244
0.000373807
0.000340569
0.000323228
0.00032378
0.000338266
0.000380603
0.00047493
0.000669346
0.00105284
0.00167408
0.00189919
0.000845298
0.000292267
0.000545237
0.000603314
0.000602452
0.000582491
0.00054054
0.000486769
0.000433258
0.000389162
0.000358048
0.000341282
0.000342566
0.000356303
0.000395295
0.000481573
0.000664569
0.00103977
0.0017021
0.00194284
0.000848584
0.000263184
0.000510357
0.000586308
0.000591125
0.000580194
0.000547216
0.000500368
0.000454842
0.000415784
0.000387114
0.000370742
0.000372487
0.000386339
0.000424944
0.00050946
0.000684946
0.00103806
0.00173076
0.00195872
0.000850328
0.000231837
0.000461982
0.000561537
0.000586956
0.000583026
0.00056289
0.00052374
0.000484353
0.000450308
0.000424823
0.000409865
0.000412208
0.000426681
0.000465936
0.000550599
0.000726387
0.00106102
0.0017563
0.00195515
0.000830297
0.000197112
0.000427539
0.000548193
0.000591718
0.000596124
0.000587309
0.000562851
0.000528825
0.000497673
0.000473614
0.000458556
0.0004612
0.00047645
0.000517381
0.000604509
0.000788416
0.00110611
0.00176869
0.00186396
0.000796613
0.000162006
0.000369921
0.000515245
0.000600891
0.000627955
0.000626069
0.00061299
0.00058541
0.000556662
0.000533433
0.000519647
0.000523653
0.000541903
0.000588891
0.000685055
0.00089309
0.00120603
0.00177165
0.00172809
0.000750795
0.00010968
0.000308183
0.000522165
0.000647548
0.000723769
0.000731955
0.000723831
0.000702198
0.000670866
0.000645032
0.000638802
0.000648962
0.000679622
0.000753204
0.000881894
0.00115597
0.00147221
0.00176939
0.00156803
0.000692906
0.000110404
0.000320804
0.000556031
0.000699626
0.000783718
0.000825222
0.000841948
0.000859187
0.00087566
0.000908279
0.000953923
0.00103483
0.00113949
0.00130573
0.00150216
0.00179652
0.00193888
0.00183341
0.00146706
0.000617247
8.02953e-05
0.00012191
0.000214801
0.000307859
0.000377269
0.000425277
0.000451507
0.000468979
0.00047671
0.00048262
0.000484608
0.00048817
0.000491141
0.000497675
0.000503471
0.000520236
0.00054288
0.00057133
0.000565657
0.000504622
)
;

boundaryField
{
    movingWall
    {
        type            kqRWallFunction;
        value           nonuniform List<scalar> 
20
(
8.02953e-05
0.00012191
0.000214801
0.000307859
0.000377269
0.000425277
0.000451507
0.000468979
0.00047671
0.00048262
0.000484608
0.00048817
0.000491141
0.000497675
0.000503471
0.000520236
0.00054288
0.00057133
0.000565657
0.000504622
)
;
    }
    fixedWalls
    {
        type            kqRWallFunction;
        value           nonuniform List<scalar> 
60
(
9.73505e-06
4.17544e-05
0.000129408
0.000269715
0.000369211
0.000423142
0.000432378
0.000426413
0.000411061
0.000381761
0.000350345
0.000321945
0.000292267
0.000263184
0.000231837
0.000197112
0.000162006
0.00010968
0.000110404
8.02953e-05
0.000192859
0.000401863
0.000525218
0.000604762
0.000664291
0.000712314
0.000750805
0.000782783
0.000806457
0.000825731
0.000837306
0.000845298
0.000848584
0.000850328
0.000830297
0.000796613
0.000750795
0.000692906
0.000617247
0.000504622
9.73505e-06
3.08038e-05
0.000113118
0.000218884
0.00028909
0.000343449
0.000387155
0.000429092
0.000465697
0.000503024
0.000537824
0.00057448
0.000609744
0.000630928
0.000639864
0.000635597
0.000581873
0.0004463
0.000274165
0.000192859
)
;
    }
    frontAndBack
    {
        type            empty;
    }
}


// ************************************************************************* //
