/*--------------------------------*- C++ -*----------------------------------*\
| =========                 |                                                 |
| \\      /  F ield         | OpenFOAM: The Open Source CFD Toolbox           |
|  \\    /   O peration     | Version:  5.x                                   |
|   \\  /    A nd           | Web:      www.OpenFOAM.org                      |
|    \\/     M anipulation  |                                                 |
\*---------------------------------------------------------------------------*/
FoamFile
{
    version     2.0;
    format      ascii;
    class       volScalarField;
    location    "19";
    object      nut;
}
// * * * * * * * * * * * * * * * * * * * * * * * * * * * * * * * * * * * * * //

dimensions      [0 2 -1 0 0 0 0];

internalField   nonuniform List<scalar> 
400
(
2.7381e-07
8.66402e-07
3.18155e-06
6.15625e-06
8.13081e-06
9.65969e-06
1.08889e-05
1.20684e-05
1.3098e-05
1.41478e-05
1.51266e-05
1.61576e-05
1.71494e-05
1.77453e-05
1.79966e-05
1.78766e-05
1.63656e-05
1.25525e-05
7.71112e-06
5.42433e-06
1.17439e-06
4.89414e-06
8.44426e-06
1.57097e-05
1.9996e-05
2.61945e-05
3.03946e-05
3.60163e-05
4.03885e-05
4.46327e-05
4.77424e-05
5.00275e-05
5.08473e-05
5.15394e-05
5.08363e-05
4.85969e-05
4.70396e-05
3.65441e-05
2.03647e-05
1.13027e-05
3.63972e-06
1.57382e-05
2.43741e-05
3.17275e-05
3.83797e-05
4.48986e-05
5.00742e-05
5.55998e-05
5.85312e-05
6.16878e-05
6.34979e-05
6.47553e-05
6.50275e-05
6.49025e-05
6.3531e-05
5.9851e-05
5.63364e-05
4.87036e-05
2.74275e-05
1.47722e-05
7.58585e-06
2.79605e-05
3.57524e-05
4.29579e-05
4.95705e-05
5.50414e-05
5.9347e-05
6.40745e-05
6.69971e-05
6.99437e-05
7.12121e-05
7.21521e-05
7.26193e-05
7.25665e-05
7.15122e-05
6.768e-05
6.12321e-05
5.6449e-05
3.61124e-05
1.70094e-05
1.03842e-05
3.51171e-05
4.2942e-05
4.96734e-05
5.63721e-05
6.24078e-05
6.75213e-05
7.11689e-05
7.2665e-05
7.27968e-05
7.30102e-05
7.36324e-05
7.44118e-05
7.51824e-05
7.57207e-05
7.50004e-05
6.70105e-05
6.13403e-05
4.32535e-05
1.86837e-05
1.1901e-05
3.88106e-05
4.70328e-05
5.53144e-05
6.26828e-05
6.85236e-05
7.15511e-05
7.17454e-05
7.13975e-05
7.14846e-05
7.16188e-05
7.21947e-05
7.28345e-05
7.40784e-05
7.5899e-05
7.76703e-05
7.31358e-05
6.48698e-05
4.99587e-05
2.00344e-05
1.21608e-05
3.94782e-05
5.0884e-05
5.98828e-05
6.63253e-05
6.98096e-05
7.09767e-05
7.03799e-05
7.0133e-05
7.04159e-05
7.07466e-05
7.16143e-05
7.16958e-05
7.24176e-05
7.43814e-05
7.77775e-05
7.90506e-05
6.88576e-05
5.54597e-05
2.1117e-05
1.1993e-05
4.05897e-05
5.35701e-05
6.1846e-05
6.74028e-05
6.97826e-05
7.00284e-05
6.94198e-05
6.9738e-05
7.08169e-05
7.19514e-05
7.26152e-05
7.25847e-05
7.24201e-05
7.31396e-05
7.66712e-05
8.18183e-05
7.24736e-05
6.06904e-05
2.20164e-05
1.15613e-05
4.02102e-05
5.40443e-05
6.24093e-05
6.7471e-05
6.93428e-05
6.93008e-05
6.90904e-05
7.02601e-05
7.19617e-05
7.33096e-05
7.37811e-05
7.32119e-05
7.2737e-05
7.31004e-05
7.54162e-05
8.14398e-05
7.68638e-05
6.46126e-05
2.26821e-05
1.07372e-05
3.98698e-05
5.3804e-05
6.22671e-05
6.71674e-05
6.87932e-05
6.88702e-05
6.91332e-05
7.07759e-05
7.27259e-05
7.40213e-05
7.42702e-05
7.38927e-05
7.35345e-05
7.35605e-05
7.51146e-05
7.99641e-05
8.05837e-05
6.8237e-05
2.32257e-05
9.85362e-06
3.79305e-05
5.23825e-05
6.11839e-05
6.61275e-05
6.82397e-05
6.83722e-05
6.85949e-05
6.98536e-05
7.16679e-05
7.32819e-05
7.37104e-05
7.37541e-05
7.36975e-05
7.42729e-05
7.56223e-05
7.96103e-05
8.30573e-05
7.09156e-05
2.3542e-05
9.05486e-06
3.54901e-05
5.07603e-05
6.0189e-05
6.54907e-05
6.71386e-05
6.7864e-05
6.81863e-05
6.91134e-05
7.04548e-05
7.16434e-05
7.18416e-05
7.23407e-05
7.33841e-05
7.44652e-05
7.60866e-05
7.96309e-05
8.47445e-05
7.30803e-05
2.3784e-05
8.22018e-06
3.13613e-05
4.7724e-05
5.72387e-05
6.36013e-05
6.65428e-05
6.73264e-05
6.75304e-05
6.79667e-05
6.8643e-05
6.96309e-05
6.99517e-05
7.07867e-05
7.24766e-05
7.47724e-05
7.649e-05
7.95366e-05
8.57446e-05
7.32535e-05
2.38644e-05
7.40222e-06
2.81752e-05
4.451e-05
5.43348e-05
6.17881e-05
6.57335e-05
6.66115e-05
6.68723e-05
6.70396e-05
6.72245e-05
6.81748e-05
6.86609e-05
6.98525e-05
7.2052e-05
7.49955e-05
7.76035e-05
7.94086e-05
8.59634e-05
7.29166e-05
2.39161e-05
6.52056e-06
2.38057e-05
3.96747e-05
5.13551e-05
5.91165e-05
6.46757e-05
6.61542e-05
6.66129e-05
6.67971e-05
6.67423e-05
6.76231e-05
6.816e-05
6.9439e-05
7.17015e-05
7.47032e-05
7.79049e-05
7.84732e-05
8.45063e-05
7.21066e-05
2.33527e-05
5.5439e-06
2.06566e-05
3.56461e-05
4.72697e-05
5.51353e-05
6.15676e-05
6.53659e-05
6.64242e-05
6.68635e-05
6.67592e-05
6.73486e-05
6.77566e-05
6.87617e-05
7.05343e-05
7.28968e-05
7.67086e-05
7.64887e-05
8.08541e-05
6.78155e-05
2.24053e-05
4.55654e-06
1.63265e-05
3.06543e-05
4.34263e-05
5.19515e-05
5.77726e-05
6.26183e-05
6.4506e-05
6.513e-05
6.52031e-05
6.52593e-05
6.54724e-05
6.60391e-05
6.70182e-05
6.83175e-05
7.27927e-05
7.35133e-05
7.52763e-05
6.32272e-05
2.11167e-05
3.08485e-06
1.29362e-05
2.8551e-05
4.07163e-05
5.17818e-05
5.63968e-05
6.07377e-05
6.30765e-05
6.25659e-05
6.17788e-05
6.07511e-05
6.05869e-05
6.06399e-05
6.15995e-05
6.23451e-05
6.77609e-05
7.13222e-05
6.76896e-05
5.42883e-05
1.94885e-05
3.10517e-06
1.42231e-05
2.60795e-05
3.42589e-05
4.0478e-05
4.48861e-05
4.73839e-05
5.01439e-05
5.16599e-05
5.37737e-05
5.53581e-05
5.73673e-05
5.96163e-05
6.34272e-05
6.7098e-05
7.38115e-05
7.06744e-05
6.43026e-05
4.68759e-05
1.73605e-05
2.25835e-06
3.42877e-06
6.04136e-06
8.65865e-06
1.06109e-05
1.19611e-05
1.26989e-05
1.31903e-05
1.34078e-05
1.3574e-05
1.36299e-05
1.37301e-05
1.38137e-05
1.39975e-05
1.41605e-05
1.46321e-05
1.52689e-05
1.60691e-05
1.59096e-05
1.41929e-05
)
;

boundaryField
{
    movingWall
    {
        type            nutkWallFunction;
        Cmu             0.09;
        kappa           0.41;
        E               9.8;
        value           uniform 0;
    }
    fixedWalls
    {
        type            nutkWallFunction;
        Cmu             0.09;
        kappa           0.41;
        E               9.8;
        value           uniform 0;
    }
    frontAndBack
    {
        type            empty;
    }
}


// ************************************************************************* //
