/*--------------------------------*- C++ -*----------------------------------*\
| =========                 |                                                 |
| \\      /  F ield         | OpenFOAM: The Open Source CFD Toolbox           |
|  \\    /   O peration     | Version:  5.x                                   |
|   \\  /    A nd           | Web:      www.OpenFOAM.org                      |
|    \\/     M anipulation  |                                                 |
\*---------------------------------------------------------------------------*/
FoamFile
{
    version     2.0;
    format      ascii;
    class       volScalarField;
    location    "19";
    object      p;
}
// * * * * * * * * * * * * * * * * * * * * * * * * * * * * * * * * * * * * * //

dimensions      [0 2 -2 0 0 0 0];

internalField   nonuniform List<scalar> 
400
(
-1.45897e-08
-8.98718e-05
-0.000153584
-0.000443088
-0.0013504
-0.00283132
-0.00454481
-0.00618059
-0.00750112
-0.00837045
-0.00867465
-0.00831233
-0.00727954
-0.00557314
-0.00320405
-0.000348865
0.00261865
0.00510225
0.00656219
0.00687962
0.000104449
-4.17085e-06
-0.000256871
-0.000911579
-0.00207316
-0.00363836
-0.0053409
-0.00693256
-0.00822567
-0.00909386
-0.0094336
-0.00918258
-0.00828614
-0.00671762
-0.0045176
-0.00180234
0.00112306
0.00375462
0.0055394
0.00626464
0.000265549
-8.26683e-05
-0.000739369
-0.0018324
-0.00332506
-0.00502618
-0.00673252
-0.00827433
-0.00951996
-0.0103394
-0.0106559
-0.0104352
-0.00965093
-0.00829279
-0.00637849
-0.00398222
-0.00128821
0.00136475
0.003483
0.00455359
1.07382e-06
-0.00058271
-0.0016612
-0.00317352
-0.0049393
-0.00675265
-0.00845167
-0.0099124
-0.0110348
-0.011753
-0.0120292
-0.0118379
-0.0111599
-0.00999692
-0.00836461
-0.00631195
-0.00394342
-0.00146675
0.000722545
0.00191023
-0.000852392
-0.00163872
-0.00301629
-0.00477214
-0.00666181
-0.00848911
-0.0101206
-0.0114683
-0.0124753
-0.0131089
-0.0133487
-0.0131818
-0.0126026
-0.0116182
-0.0102455
-0.00851926
-0.00650196
-0.00432238
-0.00227179
-0.00110501
-0.00225239
-0.0031363
-0.00462398
-0.00643107
-0.00830728
-0.010066
-0.0115941
-0.0128285
-0.0137366
-0.0143001
-0.0145098
-0.0143632
-0.0138655
-0.0130302
-0.0118773
-0.0104355
-0.00874839
-0.00690901
-0.00518383
-0.00406101
-0.00390098
-0.00479208
-0.00624089
-0.00797767
-0.00975942
-0.0114075
-0.0128216
-0.0139518
-0.0147766
-0.0152854
-0.0154748
-0.015348
-0.0149154
-0.0141958
-0.0132144
-0.0120005
-0.0105944
-0.00907353
-0.00768386
-0.00666689
-0.00545969
-0.00630642
-0.00765051
-0.00927269
-0.0109346
-0.0124661
-0.0137752
-0.0148185
-0.0155789
-0.0160489
-0.0162274
-0.016119
-0.0157361
-0.0151008
-0.0142444
-0.0132015
-0.0120146
-0.0107574
-0.00966293
-0.00874487
-0.00668497
-0.00747832
-0.00870657
-0.0102188
-0.0117731
-0.0132075
-0.0144358
-0.0154169
-0.0161338
-0.0165796
-0.0167532
-0.0166589
-0.0163094
-0.0157288
-0.014954
-0.0140289
-0.0130021
-0.0119328
-0.0110595
-0.0102253
-0.00747213
-0.00818683
-0.00932336
-0.0107609
-0.0122387
-0.0136097
-0.0147901
-0.0157371
-0.0164319
-0.0168663
-0.0170383
-0.0169517
-0.0166188
-0.0160648
-0.0153315
-0.0144735
-0.0135517
-0.0125907
-0.0118904
-0.0110564
-0.00777385
-0.00840646
-0.00948698
-0.0108786
-0.0123164
-0.0136622
-0.0148295
-0.0157712
-0.0164646
-0.0168995
-0.0170725
-0.0169863
-0.0166532
-0.0160994
-0.0153712
-0.0145315
-0.0136589
-0.0127178
-0.0121838
-0.0112186
-0.00758406
-0.0081675
-0.00921074
-0.0105793
-0.0120105
-0.013364
-0.0145501
-0.0155142
-0.0162271
-0.0166747
-0.0168515
-0.0167588
-0.0164093
-0.0158304
-0.0150738
-0.0142107
-0.0133195
-0.012352
-0.0119871
-0.0107145
-0.00698532
-0.00754193
-0.00855616
-0.00989663
-0.0113402
-0.012726
-0.0139576
-0.0149695
-0.0157225
-0.016196
-0.0163809
-0.0162765
-0.0158959
-0.0152689
-0.0144524
-0.0135216
-0.0125685
-0.0115826
-0.011239
-0.00964055
-0.00610771
-0.00662841
-0.00759485
-0.00888656
-0.0103326
-0.0117638
-0.0130637
-0.0141481
-0.014963
-0.015478
-0.0156785
-0.0155606
-0.0151376
-0.0144418
-0.0135366
-0.0125012
-0.0114554
-0.0104115
-0.00997122
-0.00814121
-0.00511376
-0.00556249
-0.00642012
-0.00761925
-0.0090421
-0.010521
-0.0119065
-0.0130851
-0.0139828
-0.0145562
-0.014784
-0.0146572
-0.0141862
-0.0134062
-0.0123874
-0.0112105
-0.0100234
-0.00884121
-0.00825684
-0.00623086
-0.00420149
-0.00448574
-0.00511588
-0.00614998
-0.00752287
-0.0090503
-0.0105362
-0.0118297
-0.0128327
-0.0134857
-0.0137592
-0.013641
-0.0131306
-0.0122634
-0.0111119
-0.00974898
-0.00834018
-0.00689145
-0.00603377
-0.00352447
-0.00355812
-0.00352342
-0.00379732
-0.00460285
-0.00590622
-0.00747946
-0.00907127
-0.0104921
-0.011619
-0.0123724
-0.0127108
-0.0126135
-0.0120999
-0.0111621
-0.00986895
-0.00826479
-0.00650633
-0.00454783
-0.00291634
0.00108306
-0.00323464
-0.00268141
-0.00251596
-0.00307991
-0.00431284
-0.00592389
-0.00762083
-0.00918094
-0.0104534
-0.0113366
-0.0117766
-0.0117416
-0.011239
-0.0102594
-0.00883431
-0.00693009
-0.00464393
-0.00169628
0.0018074
0.00916127
-0.00317991
-0.00194444
-0.00144619
-0.00185396
-0.00303038
-0.00465991
-0.00643839
-0.00812118
-0.00952908
-0.0105428
-0.0110942
-0.0111473
-0.0106878
-0.00968965
-0.00814006
-0.00591391
-0.00286723
0.0018158
0.00873599
0.0211507
-0.00357116
-0.000715429
3.26594e-06
-0.000556925
-0.00178479
-0.00345404
-0.00531534
-0.00711245
-0.00864518
-0.00977543
-0.0104239
-0.0105449
-0.0101116
-0.00910119
-0.00748055
-0.00506452
-0.000954372
0.00611465
0.0176838
0.0339364
)
;

boundaryField
{
    movingWall
    {
        type            zeroGradient;
    }
    fixedWalls
    {
        type            zeroGradient;
    }
    frontAndBack
    {
        type            empty;
    }
}


// ************************************************************************* //
