/*--------------------------------*- C++ -*----------------------------------*\
| =========                 |                                                 |
| \\      /  F ield         | OpenFOAM: The Open Source CFD Toolbox           |
|  \\    /   O peration     | Version:  5.x                                   |
|   \\  /    A nd           | Web:      www.OpenFOAM.org                      |
|    \\/     M anipulation  |                                                 |
\*---------------------------------------------------------------------------*/
FoamFile
{
    version     2.0;
    format      ascii;
    class       surfaceScalarField;
    location    "19";
    object      phi;
}
// * * * * * * * * * * * * * * * * * * * * * * * * * * * * * * * * * * * * * //

dimensions      [0 3 -1 0 0 0 0];

internalField   nonuniform List<scalar> 
760
(
1.33327e-07
-1.33323e-07
-1.44485e-07
2.77812e-07
-9.80686e-07
8.36202e-07
-2.27166e-06
1.29098e-06
-3.66043e-06
1.38877e-06
-4.90854e-06
1.24812e-06
-5.96642e-06
1.05788e-06
-6.80741e-06
8.40988e-07
-7.42463e-06
6.17223e-07
-7.82452e-06
3.9989e-07
-8.01909e-06
1.94572e-07
-7.99724e-06
-2.18582e-08
-7.77414e-06
-2.231e-07
-7.34054e-06
-4.33593e-07
-6.63515e-06
-7.05389e-07
-5.63523e-06
-9.99926e-07
-4.29047e-06
-1.34476e-06
-2.65948e-06
-1.63099e-06
-9.81284e-07
-1.6782e-06
-9.81283e-07
-4.27958e-07
2.94635e-07
-1.43432e-06
1.28418e-06
-2.77568e-06
2.17756e-06
-4.01736e-06
2.53265e-06
-5.08637e-06
2.45778e-06
-6.03169e-06
2.19344e-06
-6.81017e-06
1.83635e-06
-7.41628e-06
1.4471e-06
-7.8634e-06
1.06435e-06
-8.15135e-06
6.87832e-07
-8.26291e-06
3.06131e-07
-8.201e-06
-8.37631e-08
-7.96199e-06
-4.6211e-07
-7.52287e-06
-8.72712e-07
-6.88304e-06
-1.34522e-06
-6.00095e-06
-1.88202e-06
-4.84689e-06
-2.49881e-06
-3.36582e-06
-3.11206e-06
-1.62145e-06
-3.42257e-06
-2.60274e-06
-1.01804e-06
1.31268e-06
-2.33187e-06
2.59801e-06
-3.4968e-06
3.34249e-06
-4.47743e-06
3.51329e-06
-5.30895e-06
3.28929e-06
-5.99891e-06
2.88341e-06
-6.54707e-06
2.38452e-06
-6.94568e-06
1.8457e-06
-7.2033e-06
1.32196e-06
-7.32631e-06
8.10844e-07
-7.3318e-06
3.11628e-07
-7.22913e-06
-1.86441e-07
-6.99998e-06
-6.91255e-07
-6.62654e-06
-1.24615e-06
-6.09876e-06
-1.87301e-06
-5.38876e-06
-2.59201e-06
-4.47514e-06
-3.41243e-06
-3.30298e-06
-4.28421e-06
-1.80524e-06
-4.92031e-06
-4.40798e-06
-1.24161e-06
2.55429e-06
-2.4524e-06
3.8088e-06
-3.442e-06
4.33209e-06
-4.22477e-06
4.29605e-06
-4.84994e-06
3.91447e-06
-5.33322e-06
3.36668e-06
-5.68805e-06
2.73934e-06
-5.93765e-06
2.09531e-06
-6.08972e-06
1.47404e-06
-6.15198e-06
8.73101e-07
-6.12718e-06
2.86826e-07
-6.0149e-06
-2.9872e-07
-5.80414e-06
-9.02009e-07
-5.49354e-06
-1.55676e-06
-5.07309e-06
-2.29345e-06
-4.5218e-06
-3.14331e-06
-3.81294e-06
-4.12129e-06
-2.9005e-06
-5.19666e-06
-1.6504e-06
-6.17041e-06
-6.05838e-06
-1.17243e-06
3.72672e-06
-2.20569e-06
4.84206e-06
-3.01918e-06
5.14557e-06
-3.6446e-06
4.92147e-06
-4.11866e-06
4.38853e-06
-4.46542e-06
3.71345e-06
-4.71005e-06
2.98397e-06
-4.87487e-06
2.26013e-06
-4.96623e-06
1.5654e-06
-4.98848e-06
8.95345e-07
-4.94228e-06
2.40627e-07
-4.8269e-06
-4.14094e-07
-4.63936e-06
-1.08955e-06
-4.38132e-06
-1.8148e-06
-4.05025e-06
-2.62453e-06
-3.63348e-06
-3.56008e-06
-3.09739e-06
-4.65738e-06
-2.38207e-06
-5.91198e-06
-1.39101e-06
-7.16147e-06
-7.44939e-06
-9.66671e-07
4.69339e-06
-1.80175e-06
5.67714e-06
-2.45465e-06
5.79847e-06
-2.94583e-06
5.41266e-06
-3.30643e-06
4.74912e-06
-3.5631e-06
3.97013e-06
-3.74153e-06
3.16239e-06
-3.8578e-06
2.3764e-06
-3.91709e-06
1.62469e-06
-3.92201e-06
9.00265e-07
-3.87255e-06
1.91171e-07
-3.76765e-06
-5.18999e-07
-3.60686e-06
-1.25034e-06
-3.3934e-06
-2.02826e-06
-3.13116e-06
-2.88677e-06
-2.81898e-06
-3.87226e-06
-2.43836e-06
-5.038e-06
-1.92446e-06
-6.42587e-06
-1.13543e-06
-7.9505e-06
-8.58481e-06
-7.34321e-07
5.42771e-06
-1.36208e-06
6.3049e-06
-1.85791e-06
6.29429e-06
-2.2279e-06
5.78265e-06
-2.49847e-06
5.01969e-06
-2.6918e-06
4.16346e-06
-2.82731e-06
3.2979e-06
-2.91581e-06
2.4649e-06
-2.9615e-06
1.67039e-06
-2.96586e-06
9.04623e-07
-2.92752e-06
1.5283e-07
-2.84443e-06
-6.02085e-07
-2.71589e-06
-1.37888e-06
-2.54558e-06
-2.19858e-06
-2.34128e-06
-3.09106e-06
-2.10866e-06
-4.10489e-06
-1.83881e-06
-5.30785e-06
-1.47924e-06
-6.78544e-06
-9.35894e-07
-8.49385e-06
-9.52071e-06
-4.84769e-07
5.91248e-06
-9.26802e-07
6.74693e-06
-1.27305e-06
6.64054e-06
-1.53379e-06
6.0434e-06
-1.72811e-06
5.21401e-06
-1.87087e-06
4.30622e-06
-1.97439e-06
3.40142e-06
-2.04504e-06
2.53555e-06
-2.08554e-06
1.71089e-06
-2.09621e-06
9.1529e-07
-2.07499e-06
1.31608e-07
-2.01939e-06
-6.57684e-07
-1.92845e-06
-1.46981e-06
-1.80555e-06
-2.32149e-06
-1.66027e-06
-3.23634e-06
-1.5034e-06
-4.26175e-06
-1.33165e-06
-5.47961e-06
-1.10137e-06
-7.01572e-06
-7.24388e-07
-8.87083e-06
-1.02451e-05
-2.63628e-07
6.17611e-06
-5.17458e-07
7.00076e-06
-7.16137e-07
6.83922e-06
-8.75537e-07
6.2028e-06
-9.99878e-07
5.33835e-06
-1.09641e-06
4.40276e-06
-1.17092e-06
3.47592e-06
-1.22581e-06
2.59044e-06
-1.26213e-06
1.74721e-06
-1.27954e-06
9.32702e-07
-1.27633e-06
1.28402e-07
-1.25031e-06
-6.83707e-07
-1.20072e-06
-1.5194e-06
-1.13045e-06
-2.39175e-06
-1.04894e-06
-3.31785e-06
-9.69193e-07
-4.3415e-06
-8.91443e-07
-5.55736e-06
-7.83327e-07
-7.12383e-06
-5.71217e-07
-9.08294e-06
-1.08163e-05
-4.60771e-08
6.22219e-06
-1.28019e-07
7.0827e-06
-1.95031e-07
6.90623e-06
-2.53541e-07
6.26131e-06
-3.0604e-07
5.39085e-06
-3.54504e-07
4.45122e-06
-3.98034e-07
3.51945e-06
-4.35162e-07
2.62757e-06
-4.65211e-07
1.77725e-06
-4.87676e-07
9.55166e-07
-5.01794e-07
1.42521e-07
-5.06449e-07
-6.79052e-07
-5.0157e-07
-1.52428e-06
-4.89541e-07
-2.40378e-06
-4.78641e-07
-3.32875e-06
-4.81392e-07
-4.33875e-06
-5.03597e-07
-5.53515e-06
-5.0655e-07
-7.12088e-06
-4.22154e-07
-9.16734e-06
-1.12385e-05
1.717e-07
6.05049e-06
2.60637e-07
6.99376e-06
3.268e-07
6.84007e-06
3.56477e-07
6.23163e-06
3.71523e-07
5.3758e-06
3.72288e-07
4.45046e-06
3.62939e-07
3.5288e-06
3.4698e-07
2.64352e-06
3.26042e-07
1.79819e-06
3.00463e-07
9.80746e-07
2.6991e-07
1.73073e-07
2.3409e-07
-6.43232e-07
1.92159e-07
-1.48235e-06
1.42114e-07
-2.35374e-06
7.71503e-08
-3.26379e-06
-1.63252e-08
-4.24527e-06
-1.36663e-07
-5.41481e-06
-2.62658e-07
-6.99488e-06
-3.14694e-07
-9.1153e-06
-1.15532e-05
3.79451e-07
5.67104e-06
6.31173e-07
6.74204e-06
8.22771e-07
6.64847e-06
9.50912e-07
6.10349e-06
1.04e-06
5.28671e-06
1.09661e-06
4.39385e-06
1.12736e-06
3.49805e-06
1.1373e-06
2.63358e-06
1.12887e-06
1.80662e-06
1.10221e-06
1.00741e-06
1.05572e-06
2.19561e-07
9.87608e-07
-5.75116e-07
8.95441e-07
-1.39018e-06
7.77143e-07
-2.23544e-06
6.28512e-07
-3.11516e-06
4.42583e-07
-4.05934e-06
2.05857e-07
-5.17809e-06
-6.32429e-08
-6.72578e-06
-1.79348e-07
-8.9992e-06
-1.17325e-05
5.79374e-07
5.09166e-06
9.9057e-07
6.33084e-06
1.30355e-06
6.33549e-06
1.53386e-06
5.87318e-06
1.70375e-06
5.11682e-06
1.82511e-06
4.2725e-06
1.90442e-06
3.41874e-06
1.94718e-06
2.59081e-06
1.95627e-06
1.79753e-06
1.93167e-06
1.03201e-06
1.87061e-06
2.80622e-07
1.7701e-06
-4.74609e-07
1.62624e-06
-1.24633e-06
1.43627e-06
-2.04547e-06
1.19778e-06
-2.87667e-06
9.05717e-07
-3.76728e-06
5.49726e-07
-4.8221e-06
1.90105e-07
-6.36616e-06
-1.78989e-08
-8.79119e-06
-1.17504e-05
7.50344e-07
4.34132e-06
1.3115e-06
5.76969e-06
1.74372e-06
5.90326e-06
2.0922e-06
5.5247e-06
2.35844e-06
4.85058e-06
2.55794e-06
4.073e-06
2.69771e-06
3.27896e-06
2.78307e-06
2.50546e-06
2.81699e-06
1.7636e-06
2.79927e-06
1.04974e-06
2.72609e-06
3.53798e-07
2.59302e-06
-3.41534e-07
2.39588e-06
-1.04919e-06
2.13041e-06
-1.78e-06
1.79513e-06
-2.54139e-06
1.39266e-06
-3.36481e-06
9.22984e-07
-4.35242e-06
4.62439e-07
-5.90562e-06
1.41532e-07
-8.47029e-06
-1.16089e-05
8.9435e-07
3.44697e-06
1.57622e-06
5.08782e-06
2.13287e-06
5.34662e-06
2.60865e-06
5.04891e-06
2.99034e-06
4.46889e-06
3.2842e-06
3.77914e-06
3.49857e-06
3.0646e-06
3.63891e-06
2.36511e-06
3.70764e-06
1.69488e-06
3.70461e-06
1.05277e-06
3.62457e-06
4.33836e-07
3.46022e-06
-1.77189e-07
3.21035e-06
-7.99314e-07
2.86795e-06
-1.4376e-06
2.43143e-06
-2.10486e-06
1.91314e-06
-2.84652e-06
1.31811e-06
-3.75739e-06
7.31099e-07
-5.31861e-06
2.90342e-07
-8.02953e-06
-1.13185e-05
9.1726e-07
2.52971e-06
1.71205e-06
4.29303e-06
2.41663e-06
4.64204e-06
3.04073e-06
4.42481e-06
3.5626e-06
3.94703e-06
3.97459e-06
3.36714e-06
4.28278e-06
2.75641e-06
4.49397e-06
2.15392e-06
4.60989e-06
1.57896e-06
4.63133e-06
1.03133e-06
4.55511e-06
5.10049e-07
4.36487e-06
1.30588e-08
4.0689e-06
-5.0335e-07
3.65541e-06
-1.02412e-06
3.12123e-06
-1.57068e-06
2.4868e-06
-2.21209e-06
1.75699e-06
-3.02758e-06
1.03201e-06
-4.59363e-06
4.61301e-07
-7.45882e-06
-1.08572e-05
8.20379e-07
1.70933e-06
1.68388e-06
3.42953e-06
2.56052e-06
3.7654e-06
3.35658e-06
3.62876e-06
4.03575e-06
3.26786e-06
4.58698e-06
2.81591e-06
5.00907e-06
2.33432e-06
5.30735e-06
1.85565e-06
5.48362e-06
1.40269e-06
5.53936e-06
9.75587e-07
5.47144e-06
5.77971e-07
5.28962e-06
1.94879e-07
4.96438e-06
-1.78111e-07
4.50927e-06
-5.69004e-07
3.907e-06
-9.68407e-07
3.18421e-06
-1.48929e-06
2.33317e-06
-2.17654e-06
1.46342e-06
-3.72388e-06
6.8264e-07
-6.67804e-06
-1.01746e-05
3.92204e-07
1.31713e-06
1.38114e-06
2.44059e-06
2.43531e-06
2.71123e-06
3.42701e-06
2.63705e-06
4.28391e-06
2.41096e-06
4.99506e-06
2.10476e-06
5.5562e-06
1.77318e-06
5.96759e-06
1.44426e-06
6.23441e-06
1.13587e-06
6.36197e-06
8.48027e-07
6.35273e-06
5.8721e-07
6.21358e-06
3.34029e-07
5.93953e-06
9.59316e-08
5.52458e-06
-1.54054e-07
4.94279e-06
-3.86616e-07
4.23277e-06
-7.79275e-07
3.33982e-06
-1.28359e-06
2.3603e-06
-2.74436e-06
1.1632e-06
-5.48095e-06
-9.01139e-06
-5.12864e-07
1.82999e-06
6.30175e-07
1.29755e-06
2.03028e-06
1.31112e-06
3.3057e-06
1.36164e-06
4.40571e-06
1.31095e-06
5.33434e-06
1.17613e-06
6.09127e-06
1.01625e-06
6.67578e-06
8.5975e-07
7.1007e-06
7.10953e-07
7.37373e-06
5.74996e-07
7.51093e-06
4.50008e-07
7.51354e-06
3.31415e-07
7.38658e-06
2.2289e-07
7.12662e-06
1.05913e-07
6.73615e-06
3.84487e-09
6.20822e-06
-2.51343e-07
5.47843e-06
-5.53798e-07
4.5059e-06
-1.77182e-06
2.51574e-06
-3.49079e-06
-6.49565e-06
1.82999e-06
3.12754e-06
4.43866e-06
5.8003e-06
7.11125e-06
8.28738e-06
9.30363e-06
1.01634e-05
1.08743e-05
1.14493e-05
1.18993e-05
1.22308e-05
1.24536e-05
1.25596e-05
1.25634e-05
1.23121e-05
1.17583e-05
9.98643e-06
6.49565e-06
)
;

boundaryField
{
    movingWall
    {
        type            calculated;
        value           uniform 0;
    }
    fixedWalls
    {
        type            calculated;
        value           uniform 0;
    }
    frontAndBack
    {
        type            empty;
        value           nonuniform 0();
    }
}


// ************************************************************************* //
