/*--------------------------------*- C++ -*----------------------------------*\
| =========                 |                                                 |
| \\      /  F ield         | OpenFOAM: The Open Source CFD Toolbox           |
|  \\    /   O peration     | Version:  5.x                                   |
|   \\  /    A nd           | Web:      www.OpenFOAM.org                      |
|    \\/     M anipulation  |                                                 |
\*---------------------------------------------------------------------------*/
FoamFile
{
    version     2.0;
    format      ascii;
    class       volVectorField;
    location    "19";
    object      U;
}
// * * * * * * * * * * * * * * * * * * * * * * * * * * * * * * * * * * * * * //

dimensions      [0 1 -1 0 0 0 0];

internalField   nonuniform List<vector> 
400
(
(0.00277442 -0.00361041 0)
(0.00170307 -0.000514244 0)
(-0.00612846 0.00492872 0)
(-0.0290798 0.0112125 0)
(-0.0629749 0.0138966 0)
(-0.0891909 0.0121396 0)
(-0.112793 0.0103605 0)
(-0.130504 0.00800101 0)
(-0.14465 0.005867 0)
(-0.154117 0.00351658 0)
(-0.159518 0.00154131 0)
(-0.161424 -0.000589812 0)
(-0.159063 -0.00400705 0)
(-0.151619 -0.00626943 0)
(-0.139179 -0.00964203 0)
(-0.120647 -0.012413 0)
(-0.096563 -0.0156212 0)
(-0.0674904 -0.01696 0)
(-0.036371 -0.014445 0)
(-0.00898371 -0.00249282 0)
(-0.00254894 -0.00120195 0)
(-0.0139223 0.0134287 0)
(-0.0399947 0.0314831 0)
(-0.0690482 0.0398536 0)
(-0.0936497 0.038844 0)
(-0.113828 0.0348648 0)
(-0.130934 0.0294349 0)
(-0.143692 0.0236238 0)
(-0.154206 0.017058 0)
(-0.161363 0.0108937 0)
(-0.165352 0.00494613 0)
(-0.165763 -0.00102079 0)
(-0.162506 -0.0075025 0)
(-0.155531 -0.0146174 0)
(-0.144285 -0.023079 0)
(-0.128116 -0.0326416 0)
(-0.107046 -0.043212 0)
(-0.08108 -0.0520856 0)
(-0.0503547 -0.0529891 0)
(-0.0183805 -0.0323385 0)
(-0.00917276 0.0156668 0)
(-0.0324406 0.041189 0)
(-0.0588605 0.0565766 0)
(-0.0817022 0.0606614 0)
(-0.0998421 0.0571342 0)
(-0.114838 0.0500783 0)
(-0.126899 0.0412728 0)
(-0.136127 0.031874 0)
(-0.142693 0.0231185 0)
(-0.146045 0.0144069 0)
(-0.147305 0.00566177 0)
(-0.14621 -0.00319824 0)
(-0.143037 -0.0123755 0)
(-0.136814 -0.022344 0)
(-0.127636 -0.0337031 0)
(-0.114773 -0.0468402 0)
(-0.0978837 -0.0620067 0)
(-0.0767313 -0.0780046 0)
(-0.050092 -0.0883899 0)
(-0.0211844 -0.0747879 0)
(-0.0132201 0.0393731 0)
(-0.038059 0.0647285 0)
(-0.0610242 0.0768573 0)
(-0.0787631 0.0778385 0)
(-0.0923642 0.0717958 0)
(-0.103186 0.0622787 0)
(-0.111249 0.0510335 0)
(-0.117104 0.039296 0)
(-0.120925 0.0278053 0)
(-0.122949 0.0165819 0)
(-0.123319 0.00569345 0)
(-0.121911 -0.00524689 0)
(-0.118668 -0.0166189 0)
(-0.113378 -0.0289726 0)
(-0.105998 -0.0428943 0)
(-0.0961349 -0.0589248 0)
(-0.0830961 -0.0772683 0)
(-0.0661853 -0.0971538 0)
(-0.0438045 -0.113947 0)
(-0.0195205 -0.109392 0)
(-0.0134356 0.0617108 0)
(-0.036003 0.0858878 0)
(-0.0546033 0.0942705 0)
(-0.0685785 0.0919535 0)
(-0.079013 0.0830546 0)
(-0.0868767 0.0709427 0)
(-0.0924447 0.0573824 0)
(-0.0963886 0.0436559 0)
(-0.0988494 0.0303884 0)
(-0.0999493 0.0176003 0)
(-0.0996873 0.00515382 0)
(-0.0980407 -0.00732175 0)
(-0.094978 -0.0202289 0)
(-0.0904691 -0.0341785 0)
(-0.084526 -0.0498597 0)
(-0.0770354 -0.0680368 0)
(-0.067356 -0.089275 0)
(-0.0543114 -0.113222 0)
(-0.0359105 -0.136017 0)
(-0.0170667 -0.138759 0)
(-0.0115035 0.0824479 0)
(-0.0300764 0.104369 0)
(-0.0447057 0.108998 0)
(-0.055727 0.103267 0)
(-0.063677 0.0914852 0)
(-0.069475 0.0769934 0)
(-0.0735274 0.0615945 0)
(-0.0763784 0.0464413 0)
(-0.0780727 0.0319139 0)
(-0.0786823 0.0179087 0)
(-0.0782143 0.00421774 0)
(-0.0766461 -0.00948523 0)
(-0.0739551 -0.0236001 0)
(-0.0701644 -0.0386852 0)
(-0.0653555 -0.0554487 0)
(-0.0595739 -0.0747872 0)
(-0.052529 -0.097669 0)
(-0.0430826 -0.124518 0)
(-0.0305427 -0.153164 0)
(-0.0110648 -0.162779 0)
(-0.00942329 0.099866 0)
(-0.0228289 0.119326 0)
(-0.0340162 0.120785 0)
(-0.0423207 0.112001 0)
(-0.0482044 0.0978002 0)
(-0.0525005 0.081446 0)
(-0.055549 0.0646883 0)
(-0.0577108 0.0484599 0)
(-0.0590036 0.0329441 0)
(-0.0594817 0.0179801 0)
(-0.0591257 0.0033103 0)
(-0.0578928 -0.0114034 0)
(-0.0557403 -0.0265367 0)
(-0.0527023 -0.0425554 0)
(-0.0488983 -0.0601175 0)
(-0.0444559 -0.0801918 0)
(-0.0393518 -0.104009 0)
(-0.0325331 -0.13296 0)
(-0.0249176 -0.165751 0)
(-0.00840779 -0.182957 0)
(-0.00652068 0.113112 0)
(-0.0153935 0.13062 0)
(-0.023497 0.129569 0)
(-0.0292632 0.118469 0)
(-0.0333696 0.10251 0)
(-0.0364461 0.0848242 0)
(-0.0387186 0.0670763 0)
(-0.0403927 0.050041 0)
(-0.0414651 0.0337945 0)
(-0.0419617 0.0181204 0)
(-0.0418456 0.00270368 0)
(-0.0410584 -0.0128056 0)
(-0.0395504 -0.028753 0)
(-0.0373547 -0.0455122 0)
(-0.0346076 -0.0636271 0)
(-0.0314918 -0.0840752 0)
(-0.0281377 -0.108341 0)
(-0.0236318 -0.138643 0)
(-0.020301 -0.174494 0)
(-0.00455175 -0.198871 0)
(-0.0041317 0.121339 0)
(-0.00844775 0.137856 0)
(-0.0134692 0.135224 0)
(-0.0168434 0.122795 0)
(-0.0193245 0.105759 0)
(-0.0213023 0.0872498 0)
(-0.0228662 0.0688723 0)
(-0.0241015 0.0513033 0)
(-0.0249813 0.0345692 0)
(-0.025506 0.0184096 0)
(-0.0256372 0.00246815 0)
(-0.0253207 -0.013616 0)
(-0.024515 -0.0301604 0)
(-0.0232445 -0.0474582 0)
(-0.0216537 -0.0659148 0)
(-0.0199543 -0.0864652 0)
(-0.0184092 -0.110878 0)
(-0.0158197 -0.142026 0)
(-0.0165286 -0.180185 0)
(-0.00237505 -0.2117 0)
(-0.000822434 0.125121 0)
(-0.00183903 0.141817 0)
(-0.00400376 0.138205 0)
(-0.0050339 0.125139 0)
(-0.00595095 0.107652 0)
(-0.00683195 0.0887755 0)
(-0.00765236 0.0700957 0)
(-0.00841022 0.0522508 0)
(-0.00905306 0.035255 0)
(-0.00956309 0.0188299 0)
(-0.0099122 0.00259727 0)
(-0.0100675 -0.0138119 0)
(-0.0100113 -0.0306953 0)
(-0.00976076 -0.04828 0)
(-0.00944856 -0.0668415 0)
(-0.00928756 -0.0872251 0)
(-0.00979616 -0.111449 0)
(-0.00880099 -0.143 0)
(-0.0134329 -0.182898 0)
(0.000509576 -0.221274 0)
(0.00162307 0.123786 0)
(0.00420864 0.141887 0)
(0.00524392 0.138205 0)
(0.00638399 0.125383 0)
(0.00700639 0.10801 0)
(0.0072787 0.0892619 0)
(0.00727692 0.0706481 0)
(0.00707194 0.0528099 0)
(0.00673362 0.0357941 0)
(0.00628957 0.0193396 0)
(0.00575422 0.00307154 0)
(0.00513267 -0.0133808 0)
(0.00440966 -0.0303024 0)
(0.00356864 -0.0478865 0)
(0.00247362 -0.0662989 0)
(0.000978323 -0.086266 0)
(-0.00176048 -0.109988 0)
(-0.00223786 -0.141559 0)
(-0.0109807 -0.183418 0)
(0.00274959 -0.228237 0)
(0.00371484 0.119218 0)
(0.010234 0.138756 0)
(0.0138458 0.135986 0)
(0.0173277 0.124176 0)
(0.0196821 0.107175 0)
(0.0212443 0.0888386 0)
(0.0222029 0.0705466 0)
(0.0226657 0.0529561 0)
(0.0227189 0.0361543 0)
(0.0223983 0.0199153 0)
(0.0217053 0.00388565 0)
(0.0206208 -0.0123012 0)
(0.0190895 -0.0289293 0)
(0.0171008 -0.0461827 0)
(0.0144791 -0.0641562 0)
(0.0111838 -0.0834674 0)
(0.00620627 -0.10636 0)
(0.00415687 -0.137624 0)
(-0.00883532 -0.181667 0)
(0.00604405 -0.232435 0)
(0.00605428 0.110115 0)
(0.0157593 0.132106 0)
(0.0224449 0.130545 0)
(0.0279077 0.120424 0)
(0.0321925 0.10451 0)
(0.0352023 0.087037 0)
(0.0372909 0.0694663 0)
(0.0385781 0.0524726 0)
(0.0391469 0.0362031 0)
(0.039035 0.0204884 0)
(0.03823 0.00501939 0)
(0.036699 -0.0105502 0)
(0.0343347 -0.0264992 0)
(0.031142 -0.0430367 0)
(0.0268497 -0.0602318 0)
(0.0216944 -0.0786375 0)
(0.0144614 -0.100421 0)
(0.0104061 -0.131391 0)
(-0.00674584 -0.178065 0)
(0.00981599 -0.234627 0)
(0.00796069 0.0971202 0)
(0.0207961 0.123108 0)
(0.0301972 0.123832 0)
(0.037949 0.115113 0)
(0.0443204 0.100619 0)
(0.0490815 0.0842157 0)
(0.0525697 0.0675865 0)
(0.0549095 0.0514359 0)
(0.0561706 0.035964 0)
(0.0563939 0.0210629 0)
(0.0555494 0.00648014 0)
(0.0536018 -0.00810667 0)
(0.0503758 -0.0229699 0)
(0.0459436 -0.0383613 0)
(0.0398532 -0.0543931 0)
(0.0327768 -0.0716204 0)
(0.0230179 -0.0921638 0)
(0.0168914 -0.123239 0)
(-0.00418876 -0.17301 0)
(0.0147252 -0.235148 0)
(0.00981032 0.080659 0)
(0.0250597 0.109902 0)
(0.0369516 0.113262 0)
(0.0470886 0.106401 0)
(0.0557543 0.0938684 0)
(0.0626239 0.0791312 0)
(0.067838 0.0639736 0)
(0.0715137 0.0491737 0)
(0.073696 0.034981 0)
(0.0744374 0.0213487 0)
(0.0736785 0.00809759 0)
(0.0713898 -0.0050572 0)
(0.0673031 -0.0183534 0)
(0.0616517 -0.0321062 0)
(0.0536671 -0.0465014 0)
(0.0446159 -0.0622775 0)
(0.032017 -0.0814701 0)
(0.0239008 -0.11286 0)
(-0.0016336 -0.166306 0)
(0.0203101 -0.235017 0)
(0.0100549 0.0610502 0)
(0.0275796 0.0957607 0)
(0.0415892 0.102036 0)
(0.0542228 0.0968085 0)
(0.0656459 0.0860565 0)
(0.0751731 0.0730869 0)
(0.082579 0.0595503 0)
(0.0879461 0.0462904 0)
(0.0913337 0.0336253 0)
(0.0928238 0.0215434 0)
(0.0923339 0.00996235 0)
(0.0898686 -0.0014617 0)
(0.0850136 -0.0127299 0)
(0.0783112 -0.0243487 0)
(0.0684633 -0.0365792 0)
(0.0575636 -0.0505597 0)
(0.0419524 -0.0681314 0)
(0.0319371 -0.100002 0)
(0.00086809 -0.157948 0)
(0.0272404 -0.231976 0)
(0.00926072 0.0415097 0)
(0.026872 0.0761078 0)
(0.0431111 0.0843702 0)
(0.0587095 0.081291 0)
(0.0732753 0.0729568 0)
(0.0859177 0.0625894 0)
(0.0959612 0.0515918 0)
(0.103392 0.0407207 0)
(0.108251 0.0303926 0)
(0.110752 0.0205989 0)
(0.110649 0.0113503 0)
(0.108374 0.00230153 0)
(0.103148 -0.00646311 0)
(0.0959916 -0.0155154 0)
(0.0847405 -0.0250053 0)
(0.0727256 -0.0367207 0)
(0.0543067 -0.0521115 0)
(0.0423509 -0.084578 0)
(0.00520851 -0.146064 0)
(0.0367401 -0.22116 0)
(-0.000103107 0.0256094 0)
(0.0200729 0.0607284 0)
(0.0385758 0.0685485 0)
(0.0578804 0.0666622 0)
(0.0763357 0.0603377 0)
(0.0923799 0.0523507 0)
(0.105471 0.0437787 0)
(0.115487 0.0352173 0)
(0.122346 0.0271593 0)
(0.12656 0.0196287 0)
(0.127637 0.0127337 0)
(0.126536 0.00619415 0)
(0.121929 9.35113e-05 0)
(0.115933 -0.00631408 0)
(0.104781 -0.0127624 0)
(0.0937385 -0.0216523 0)
(0.0735255 -0.0341199 0)
(0.0608581 -0.0655294 0)
(0.0185198 -0.126095 0)
(0.0535252 -0.192753 0)
(-0.0134585 0.0291396 0)
(-0.000247024 0.0307769 0)
(0.0267947 0.0344717 0)
(0.0529501 0.035503 0)
(0.0764644 0.033729 0)
(0.0970369 0.0298764 0)
(0.114079 0.0254525 0)
(0.127884 0.0209821 0)
(0.138002 0.0167517 0)
(0.145364 0.0127471 0)
(0.149237 0.00918965 0)
(0.151064 0.00562995 0)
(0.149243 0.00263884 0)
(0.146164 -0.00119463 0)
(0.137878 -0.0043226 0)
(0.130504 -0.0105398 0)
(0.11215 -0.0187211 0)
(0.102633 -0.0452198 0)
(0.059826 -0.0913332 0)
(0.0869428 -0.139134 0)
(0.0429399 0.0380343 0)
(0.0485391 0.0296368 0)
(0.0705407 0.0271149 0)
(0.10089 0.0268936 0)
(0.127923 0.0259305 0)
(0.152879 0.0239307 0)
(0.174681 0.0213481 0)
(0.194158 0.0188468 0)
(0.209926 0.0163886 0)
(0.223544 0.014267 0)
(0.233517 0.0122129 0)
(0.2419 0.0105084 0)
(0.246855 0.00870272 0)
(0.250603 0.00719952 0)
(0.250908 0.00523414 0)
(0.24801 0.00240784 0)
(0.238304 0.00245295 0)
(0.223164 -0.0089602 0)
(0.174572 -0.012404 0)
(0.158599 -0.0596606 0)
)
;

boundaryField
{
    movingWall
    {
        type            fixedValue;
        value           uniform (1 0 0);
    }
    fixedWalls
    {
        type            noSlip;
    }
    frontAndBack
    {
        type            empty;
    }
}


// ************************************************************************* //
