/*--------------------------------*- C++ -*----------------------------------*\
| =========                 |                                                 |
| \\      /  F ield         | OpenFOAM: The Open Source CFD Toolbox           |
|  \\    /   O peration     | Version:  5.x                                   |
|   \\  /    A nd           | Web:      www.OpenFOAM.org                      |
|    \\/     M anipulation  |                                                 |
\*---------------------------------------------------------------------------*/
FoamFile
{
    version     2.0;
    format      ascii;
    class       volScalarField;
    location    "1";
    object      p;
}
// * * * * * * * * * * * * * * * * * * * * * * * * * * * * * * * * * * * * * //

dimensions      [0 2 -2 0 0 0 0];

internalField   nonuniform List<scalar> 
336
(
-5.91983e-06
-0.000855456
-0.00307166
-0.0059766
-0.00900554
-0.0120645
-0.0153948
-0.0193295
-0.023979
-0.0288599
-0.0325865
-0.0336587
0.000769171
-0.000276338
-0.00249042
-0.00538008
-0.008573
-0.0119921
-0.0157492
-0.019991
-0.0247027
-0.029476
-0.033224
-0.0345489
0.00349616
0.00153884
-0.00121978
-0.00441625
-0.00786474
-0.0115559
-0.0156311
-0.0202686
-0.0255197
-0.0311285
-0.036269
-0.0393826
0.00813693
0.0044421
0.000616415
-0.00312841
-0.00686588
-0.0107166
-0.0149767
-0.0200348
-0.0261875
-0.0334877
-0.0416916
-0.0492848
0.0142926
0.00797849
0.00263209
-0.00177851
-0.00571027
-0.00947361
-0.0136131
-0.018876
-0.0259752
-0.0355401
-0.0489083
-0.0655067
0.0213036
0.0114449
0.0041823
-0.000877131
-0.00471847
-0.0078914
-0.0112624
-0.016073
-0.0236269
-0.0355998
-0.0572874
-0.0921132
0.0280751
0.0137411
0.00426049
-0.00126162
-0.00449017
-0.00623057
-0.00767221
-0.0105759
-0.0169297
-0.0303148
-0.0648544
-0.135863
0.0329045
0.0132421
0.00138451
-0.00422369
-0.00607395
-0.00517356
-0.00282881
-0.000885541
-0.00136372
-0.00927216
-0.0482421
-0.151767
0.0333799
0.00770415
-0.00650403
-0.0116548
-0.0112414
-0.00640745
0.00176801
0.0122186
0.0246344
0.0378439
0.0451415
0.0743066
0.0263609
-0.0057717
-0.0220577
-0.026045
-0.0225284
-0.0129282
0.00177211
0.0209171
0.0447627
0.0740366
0.109919
0.170754
0.0080033
-0.0307302
-0.0484071
-0.0501531
-0.0424977
-0.0273793
-0.00593088
0.0211801
0.0541101
0.0936392
0.141728
0.207155
-0.02634
-0.0714297
-0.0890658
-0.0867143
-0.0732586
-0.0514142
-0.0226106
0.0123463
0.0534511
0.101289
0.157282
0.225336
-0.0826054
-0.133116
-0.147896
-0.13819
-0.116155
-0.0855497
-0.0481481
-0.00486903
0.0442234
0.0996079
0.162207
0.233596
-0.169364
-0.222636
-0.229044
-0.206356
-0.171274
-0.12876
-0.0808198
-0.0282916
0.0289353
0.0914691
0.160139
0.235787
-0.300905
-0.349476
-0.336583
-0.291465
-0.236592
-0.177828
-0.116902
-0.0540741
0.011392
0.0806435
0.154909
0.235306
-0.502908
-0.526888
-0.473515
-0.390921
-0.306925
-0.226731
-0.15049
-0.0768478
-0.00369128
0.0712219
0.150021
0.23471
-0.822815
-0.772126
-0.640009
-0.498308
-0.373638
-0.266915
-0.174189
-0.0906343
-0.0116352
0.0667811
0.148053
0.235416
-1.36993
-1.10547
-0.823691
-0.59663
-0.421226
-0.286123
-0.179284
-0.0896849
-0.00890015
0.0692232
0.149523
0.236427
-2.43959
-1.53464
-0.952812
-0.621687
-0.405399
-0.256519
-0.149549
-0.0654508
0.00806944
0.0786609
0.151691
0.231822
-4.27054
-1.95263
-0.887013
-0.480549
-0.275478
-0.153453
-0.0743205
-0.0144523
0.0390538
0.0928341
0.150786
0.216003
0.299765
0.451213
0.536275
0.591605
0.621748
0.624665
0.602854
0.570425
0.295246
0.406076
0.486128
0.542858
0.576752
0.58667
0.572025
0.538307
0.300139
0.390606
0.465754
0.52307
0.559857
0.57345
0.558462
0.513799
0.307715
0.390443
0.464434
0.524638
0.566339
0.584432
0.568242
0.511511
0.313596
0.395415
0.472766
0.540117
0.591394
0.618825
0.605828
0.540284
0.318072
0.403802
0.488992
0.568667
0.636091
0.680866
0.679352
0.610698
0.322315
0.415163
0.512135
0.60979
0.701854
0.775981
0.800433
0.740274
0.327098
0.428652
0.540359
0.66167
0.78878
0.909565
0.985275
0.960015
0.332262
0.442454
0.57045
0.720572
0.894663
1.0853
1.25474
1.32414
0.334828
0.451041
0.593869
0.775028
1.0065
1.29501
1.63534
1.9521
0.324414
0.437172
0.582732
0.781596
1.06222
1.4718
2.14322
3.14812
0.292134
0.385332
0.507925
0.684783
0.96329
1.46887
2.64873
5.07898
)
;

boundaryField
{
    lid
    {
        type            zeroGradient;
    }
    fixedWalls
    {
        type            zeroGradient;
    }
    frontAndBack
    {
        type            empty;
    }
}


// ************************************************************************* //
