/*--------------------------------*- C++ -*----------------------------------*\
| =========                 |                                                 |
| \\      /  F ield         | OpenFOAM: The Open Source CFD Toolbox           |
|  \\    /   O peration     | Version:  5.x                                   |
|   \\  /    A nd           | Web:      www.OpenFOAM.org                      |
|    \\/     M anipulation  |                                                 |
\*---------------------------------------------------------------------------*/
FoamFile
{
    version     2.0;
    format      ascii;
    class       surfaceScalarField;
    location    "1";
    object      phi;
}
// * * * * * * * * * * * * * * * * * * * * * * * * * * * * * * * * * * * * * //

dimensions      [0 3 -1 0 0 0 0];

internalField   nonuniform List<scalar> 
632
(
1.05599e-08
-1.05102e-08
2.00793e-08
-9.51946e-09
2.09011e-08
-8.21879e-10
1.57809e-08
5.12025e-09
1.13477e-08
4.43311e-09
1.33845e-08
-2.03694e-09
2.36796e-08
-1.02954e-08
3.83694e-08
-1.469e-08
4.83895e-08
-1.00201e-08
4.33521e-08
5.03746e-09
2.08154e-08
2.25369e-08
2.08153e-08
1.26028e-08
-2.3113e-08
1.42189e-08
-1.11359e-08
-2.44043e-09
1.58372e-08
-2.85465e-08
3.12261e-08
-4.93783e-08
2.52648e-08
-5.20323e-08
6.17034e-10
-3.15064e-08
-3.08214e-08
5.77083e-09
-5.19675e-08
4.23932e-08
-4.66429e-08
5.61813e-08
-8.751e-09
3.45736e-08
4.41443e-08
5.5389e-08
1.77267e-09
-2.48857e-08
-2.72053e-08
1.78419e-08
-8.66418e-08
7.52735e-08
-1.57462e-07
1.02046e-07
-2.14397e-07
8.22e-08
-2.35388e-07
2.16077e-08
-2.09271e-07
-5.69379e-08
-1.41176e-07
-1.20063e-07
-5.42281e-08
-1.33591e-07
1.46379e-08
-7.76173e-08
3.03514e-08
2.84304e-08
8.57405e-08
-2.01732e-08
-4.71251e-09
-1.04595e-07
1.02264e-07
-2.38358e-07
2.09037e-07
-3.86501e-07
2.50188e-07
-5.08548e-07
2.04247e-07
-5.68828e-07
8.1887e-08
-5.45173e-07
-8.05929e-08
-4.36374e-07
-2.28861e-07
-2.68031e-07
-3.01935e-07
-9.54328e-08
-2.50215e-07
6.04364e-09
-7.30463e-08
9.17841e-08
-5.46182e-08
4.99055e-08
-2.23496e-07
2.71141e-07
-4.69588e-07
4.55128e-07
-7.36118e-07
5.16718e-07
-9.62566e-07
4.30695e-07
-1.09494e-06
2.14266e-07
-1.0943e-06
-8.12365e-08
-9.45292e-07
-3.7787e-07
-6.66888e-07
-5.80339e-07
-3.2795e-07
-5.89153e-07
-6.00969e-08
-3.409e-07
3.16871e-08
-1.03771e-07
1.53676e-07
-3.90405e-07
5.57776e-07
-7.92656e-07
8.57379e-07
-1.22651e-06
9.50576e-07
-1.60792e-06
8.12096e-07
-1.86164e-06
4.67986e-07
-1.92736e-06
-1.55101e-08
-1.76619e-06
-5.39041e-07
-1.3727e-06
-9.73828e-07
-8.03569e-07
-1.15829e-06
-2.37671e-07
-9.06799e-07
-2.05984e-07
-1.69367e-07
3.23043e-07
-6.09611e-07
9.9802e-07
-1.2147e-06
1.46247e-06
-1.86913e-06
1.605e-06
-2.46463e-06
1.4076e-06
-2.90645e-06
9.09807e-07
-3.11452e-06
1.92557e-07
-3.02291e-06
-6.30655e-07
-2.58324e-06
-1.41349e-06
-1.78516e-06
-1.95637e-06
-7.44708e-07
-1.94725e-06
-9.50692e-07
-2.51715e-07
5.74758e-07
-8.80276e-07
1.62658e-06
-1.73159e-06
2.31379e-06
-2.65551e-06
2.52892e-06
-3.52238e-06
2.27446e-06
-4.22647e-06
1.6139e-06
-4.68216e-06
6.48245e-07
-4.81559e-06
-4.97225e-07
-4.55328e-06
-1.6758e-06
-3.79911e-06
-2.71054e-06
-2.35711e-06
-3.38925e-06
-3.3078e-06
-3.49255e-07
9.24013e-07
-1.19478e-06
2.47211e-06
-2.32352e-06
3.44253e-06
-3.54723e-06
3.75264e-06
-4.71903e-06
3.44626e-06
-5.73403e-06
2.6289e-06
-6.52303e-06
1.43724e-06
-7.04498e-06
2.47329e-08
-7.28038e-06
-1.4404e-06
-7.22387e-06
-2.76706e-06
-6.90806e-06
-3.70505e-06
-3.65555e-06
-6.56031e-06
-4.59306e-07
1.38332e-06
-1.54029e-06
3.55309e-06
-2.95666e-06
4.8589e-06
-4.47662e-06
5.27259e-06
-5.93795e-06
4.90759e-06
-7.2421e-06
3.93306e-06
-8.34074e-06
2.53588e-06
-9.22147e-06
9.0546e-07
-9.89527e-06
-7.66599e-07
-1.03854e-05
-2.27695e-06
-1.07123e-05
-3.37816e-06
-3.70234e-06
-1.06655e-05
-5.80282e-07
1.9636e-06
-1.90406e-06
4.87687e-06
-3.59234e-06
6.54717e-06
-5.36343e-06
7.04369e-06
-7.0426e-06
6.58676e-06
-8.54237e-06
5.43283e-06
-9.83538e-06
3.82889e-06
-1.09283e-05
1.99834e-06
-1.18377e-05
1.42859e-07
-1.25662e-05
-1.54844e-06
-1.30603e-05
-2.88409e-06
-3.66909e-06
-1.30935e-05
-7.14757e-07
2.67836e-06
-2.27918e-06
6.44129e-06
-4.19451e-06
8.4625e-06
-6.12601e-06
8.97518e-06
-7.89639e-06
8.35714e-06
-9.44125e-06
6.97768e-06
-1.0762e-05
5.14969e-06
-1.18868e-05
3.12311e-06
-1.28384e-05
1.09444e-06
-1.36066e-05
-7.80254e-07
-1.41152e-05
-2.37546e-06
-3.60625e-06
-1.41781e-05
-8.73174e-07
3.55153e-06
-2.66804e-06
8.23616e-06
-4.72927e-06
1.05237e-05
-6.67657e-06
1.09225e-05
-8.35478e-06
1.00353e-05
-9.74622e-06
8.36912e-06
-1.08978e-05
6.30125e-06
-1.18698e-05
4.09513e-06
-1.2702e-05
1.92658e-06
-1.33894e-05
-9.27693e-08
-1.38639e-05
-1.90099e-06
-3.48762e-06
-1.39825e-05
-1.0785e-06
4.63003e-06
-3.08059e-06
1.02382e-05
-5.15052e-06
1.25937e-05
-6.8969e-06
1.26689e-05
-8.23544e-06
1.13739e-05
-9.23151e-06
9.36519e-06
-9.99807e-06
7.06781e-06
-1.06384e-05
4.73544e-06
-1.12169e-05
2.5051e-06
-1.17453e-05
4.35638e-07
-1.21759e-05
-1.47036e-06
-3.2588e-06
-1.24048e-05
-1.36975e-06
5.99978e-06
-3.51724e-06
1.23857e-05
-5.35802e-06
1.44344e-05
-6.58377e-06
1.38946e-05
-7.26358e-06
1.20537e-05
-7.58927e-06
9.69088e-06
-7.75399e-06
7.23253e-06
-7.90342e-06
4.88486e-06
-8.1228e-06
2.72449e-06
-8.43868e-06
7.51515e-07
-8.82467e-06
-1.08437e-06
-2.87335e-06
-9.21012e-06
-1.79048e-06
7.79026e-06
-3.90425e-06
1.44995e-05
-5.09464e-06
1.56248e-05
-5.34285e-06
1.41428e-05
-4.98486e-06
1.16957e-05
-4.36808e-06
9.0741e-06
-3.75374e-06
6.6182e-06
-3.30526e-06
4.43638e-06
-3.10608e-06
2.52531e-06
-3.18203e-06
8.27462e-07
-3.51916e-06
-7.47234e-07
-2.31637e-06
-4.07615e-06
-2.3184e-06
1.01087e-05
-3.89977e-06
1.60809e-05
-3.71741e-06
1.54425e-05
-2.40129e-06
1.28267e-05
-6.4412e-07
9.93854e-06
1.08939e-06
7.34059e-06
2.53776e-06
5.16982e-06
3.57913e-06
3.39501e-06
4.17359e-06
1.93085e-06
4.32221e-06
6.78846e-07
4.04117e-06
-4.66203e-07
-1.62238e-06
3.34719e-06
-2.62357e-06
1.27322e-05
-2.38543e-06
1.58427e-05
2.66084e-07
1.2791e-05
3.68254e-06
9.41025e-06
6.94588e-06
6.67519e-06
9.67383e-06
4.61264e-06
1.17511e-05
3.09255e-06
1.31836e-05
1.96255e-06
1.40202e-05
1.09418e-06
1.43123e-05
3.86753e-07
1.40916e-05
-2.45461e-07
-8.88414e-07
1.33576e-05
-7.94638e-07
1.35269e-05
3.9941e-06
1.1054e-05
1.00537e-05
6.73133e-06
1.532e-05
4.14396e-06
1.9399e-05
2.59618e-06
2.23807e-05
1.63102e-06
2.44573e-05
1.01589e-06
2.5811e-05
6.08873e-07
2.65823e-05
3.22871e-07
2.68649e-05
1.04179e-07
2.67043e-05
-8.49084e-08
-2.77777e-07
2.60937e-05
1.35269e-05
2.45809e-05
3.13122e-05
3.54561e-05
3.80523e-05
3.96834e-05
4.06992e-05
4.13081e-05
4.1631e-05
4.17352e-05
4.16503e-05
4.13725e-05
-4.59604e-06
-1.96427e-06
-3.48497e-06
-1.11107e-06
-2.63086e-06
-8.54113e-07
-1.82855e-06
-8.02312e-07
-1.05977e-06
-7.68776e-07
-4.09092e-07
-6.50678e-07
-2.42945e-08
-3.84798e-07
-2.42946e-08
-9.55326e-06
-3.0765e-06
-8.05757e-06
-2.60676e-06
-6.42072e-06
-2.49097e-06
-4.69483e-06
-2.5282e-06
-2.97534e-06
-2.48827e-06
-1.45145e-06
-2.17457e-06
-3.82098e-07
-1.45415e-06
-4.06392e-07
-1.22803e-05
-3.88978e-06
-1.08197e-05
-4.06732e-06
-8.93023e-06
-4.38044e-06
-6.75809e-06
-4.70034e-06
-4.47187e-06
-4.77449e-06
-2.33133e-06
-4.31511e-06
-6.99037e-07
-3.08644e-06
-1.10543e-06
-1.3552e-05
-4.51584e-06
-1.2262e-05
-5.35734e-06
-1.04162e-05
-6.22618e-06
-8.12877e-06
-6.9878e-06
-5.5653e-06
-7.33796e-06
-3.01554e-06
-6.86487e-06
-9.4552e-07
-5.15646e-06
-2.05095e-06
-1.35767e-05
-4.92164e-06
-1.25894e-05
-6.34467e-06
-1.1023e-05
-7.79258e-06
-8.90567e-06
-9.10514e-06
-6.3356e-06
-9.90803e-06
-3.57635e-06
-9.62412e-06
-1.17004e-06
-7.56278e-06
-3.22099e-06
-1.23027e-05
-5.02372e-06
-1.17705e-05
-6.87686e-06
-1.07229e-05
-8.84019e-06
-9.07826e-06
-1.07497e-05
-6.80993e-06
-1.21764e-05
-4.0753e-06
-1.23588e-05
-1.42352e-06
-1.02146e-05
-4.64451e-06
-9.49618e-06
-4.73766e-06
-9.57074e-06
-6.80231e-06
-9.28994e-06
-9.12099e-06
-8.46293e-06
-1.15767e-05
-6.89119e-06
-1.37481e-05
-4.51712e-06
-1.47328e-05
-1.75374e-06
-1.29779e-05
-6.39825e-06
-4.79099e-06
-4.02282e-06
-5.57411e-06
-6.01918e-06
-6.27336e-06
-8.42175e-06
-6.62828e-06
-1.12218e-05
-6.25863e-06
-1.41178e-05
-4.7716e-06
-1.62199e-05
-2.1847e-06
-1.55648e-05
-8.58295e-06
2.25366e-06
-2.92929e-06
7.85697e-07
-4.55122e-06
-9.71834e-07
-6.66422e-06
-2.78925e-06
-9.40441e-06
-4.18732e-06
-1.27197e-05
-4.3848e-06
-1.60224e-05
-2.62881e-06
-1.73208e-05
-1.12118e-05
1.2072e-05
-1.64365e-06
1.01653e-05
-2.6445e-06
7.57405e-06
-4.07301e-06
4.33496e-06
-6.16532e-06
7.76155e-07
-9.16088e-06
-2.15061e-06
-1.30956e-05
-2.63778e-06
-1.68336e-05
-1.38495e-05
2.49646e-05
-5.14574e-07
2.31745e-05
-8.54383e-07
2.04979e-05
-1.39646e-06
1.66487e-05
-2.31606e-06
1.14119e-05
-3.92405e-06
5.09016e-06
-6.77391e-06
-2.41503e-07
-1.1502e-05
-1.4091e-05
4.08579e-05
4.00035e-05
3.86071e-05
3.6291e-05
3.23669e-05
2.5593e-05
1.4091e-05
)
;

boundaryField
{
    lid
    {
        type            calculated;
        value           uniform 0;
    }
    fixedWalls
    {
        type            calculated;
        value           uniform 0;
    }
    frontAndBack
    {
        type            empty;
        value           nonuniform 0();
    }
}


// ************************************************************************* //
