/*--------------------------------*- C++ -*----------------------------------*\
| =========                 |                                                 |
| \\      /  F ield         | OpenFOAM: The Open Source CFD Toolbox           |
|  \\    /   O peration     | Version:  5.x                                   |
|   \\  /    A nd           | Web:      www.OpenFOAM.org                      |
|    \\/     M anipulation  |                                                 |
\*---------------------------------------------------------------------------*/
FoamFile
{
    version     2.0;
    format      ascii;
    class       volVectorField;
    location    "1";
    object      U;
}
// * * * * * * * * * * * * * * * * * * * * * * * * * * * * * * * * * * * * * //

dimensions      [0 1 -1 0 0 0 0];

internalField   nonuniform List<vector> 
336
(
(0.00011933 -0.00011438 0)
(0.000334988 -0.000123036 0)
(0.000434428 -5.17969e-05 0)
(0.000373476 3.12564e-06 0)
(0.000253064 7.45725e-06 0)
(0.000212874 -3.23822e-05 0)
(0.000339112 -8.38194e-05 0)
(0.000613583 -0.000100787 0)
(0.000897072 -4.20817e-05 0)
(0.000969459 9.87982e-05 0)
(0.000689953 0.000247117 0)
(0.000228535 0.000208263 0)
(0.000168615 -0.00036946 0)
(0.000354765 -0.000304209 0)
(0.000183386 6.2563e-06 0)
(-0.00030362 0.000209116 0)
(-0.000843055 0.000174684 0)
(-0.0011251 -6.74524e-05 0)
(-0.000947027 -0.000374519 0)
(-0.000314152 -0.000543362 0)
(0.0005198 -0.000389295 0)
(0.00110834 0.000135016 0)
(0.00105198 0.000769264 0)
(0.000413152 0.00077998 0)
(0.000107624 -0.000553154 0)
(-8.28e-05 -0.000132002 0)
(-0.00102807 0.00063496 0)
(-0.00244921 0.00104264 0)
(-0.00384984 0.000834978 0)
(-0.0047172 8.97169e-05 0)
(-0.00468718 -0.000862323 0)
(-0.00368048 -0.00154331 0)
(-0.00198256 -0.00149155 0)
(-0.000238032 -0.000505514 0)
(0.000728077 0.000994625 0)
(0.000453905 0.00149169 0)
(-3.69989e-05 -0.000422367 0)
(-0.000944423 0.000873973 0)
(-0.0032526 0.00240009 0)
(-0.00627714 0.00305556 0)
(-0.00917536 0.00246138 0)
(-0.0111481 0.000774541 0)
(-0.0115808 -0.001426 0)
(-0.0102076 -0.00328501 0)
(-0.00724406 -0.00389774 0)
(-0.00349238 -0.00266235 0)
(-0.00041929 0.000106287 0)
(0.000349812 0.00200038 0)
(-0.000271787 0.000266282 0)
(-0.00228488 0.00326046 0)
(-0.00665297 0.00600166 0)
(-0.012102 0.00698386 0)
(-0.0173233 0.00572853 0)
(-0.0211453 0.00250498 0)
(-0.0226058 -0.00181506 0)
(-0.0211217 -0.00591437 0)
(-0.0166507 -0.00825807 0)
(-0.00994128 -0.00745151 0)
(-0.00321253 -0.00306757 0)
(-0.000184138 0.00187311 0)
(-0.000615116 0.00178454 0)
(-0.00418328 0.0076539 0)
(-0.0114084 0.0122663 0)
(-0.0202363 0.0137372 0)
(-0.0287899 0.0115367 0)
(-0.0354726 0.00608193 0)
(-0.0389153 -0.00145015 0)
(-0.0380978 -0.00926602 0)
(-0.0324452 -0.0150937 0)
(-0.0221322 -0.0163239 0)
(-0.00979675 -0.0106917 0)
(-0.00220904 -0.000276238 0)
(-0.00108381 0.00444752 0)
(-0.00669872 0.0147586 0)
(-0.0176298 0.0221214 0)
(-0.0308542 0.0243666 0)
(-0.0438606 0.0210126 0)
(-0.0546503 0.0126801 0)
(-0.0614978 0.000828884 0)
(-0.0629588 -0.0123893 0)
(-0.0577337 -0.0241417 0)
(-0.0447143 -0.0306573 0)
(-0.0257366 -0.0270335 0)
(-0.00977228 -0.0101543 0)
(-0.00168529 0.00859468 0)
(-0.00983624 0.0253023 0)
(-0.0252776 0.036506 0)
(-0.0438305 0.0399518 0)
(-0.062327 0.035402 0)
(-0.0784864 0.0238176 0)
(-0.0904571 0.006967 0)
(-0.096703 -0.0127882 0)
(-0.0956076 -0.0324956 0)
(-0.0850482 -0.0482415 0)
(-0.0648263 -0.0541265 0)
(-0.0385826 -0.0382944 0)
(-0.00241482 0.0145525 0)
(-0.0135309 0.039942 0)
(-0.0341098 0.0562113 0)
(-0.0586127 0.0613607 0)
(-0.0832051 0.0557349 0)
(-0.105489 0.0409257 0)
(-0.123806 0.0192341 0)
(-0.137096 -0.00661356 0)
(-0.14463 -0.0335194 0)
(-0.146166 -0.0578741 0)
(-0.144524 -0.0748969 0)
(-0.142647 -0.0741089 0)
(-0.00326348 0.0226001 0)
(-0.0176725 0.0591637 0)
(-0.0437176 0.0816854 0)
(-0.0742494 0.0889171 0)
(-0.104727 0.0822755 0)
(-0.13273 0.0643956 0)
(-0.156913 0.0384501 0)
(-0.176732 0.00784721 0)
(-0.192172 -0.02379 0)
(-0.203713 -0.0524542 0)
(-0.212848 -0.0730327 0)
(-0.21806 -0.0764459 0)
(-0.00424078 0.0329649 0)
(-0.0221803 0.0832261 0)
(-0.053662 0.11289 0)
(-0.0896234 0.122157 0)
(-0.124793 0.11416 0)
(-0.156841 0.09303 0)
(-0.184813 0.0630646 0)
(-0.208612 0.0284125 0)
(-0.228567 -0.0069224 0)
(-0.245065 -0.0389136 0)
(-0.258133 -0.0631374 0)
(-0.264917 -0.0742561 0)
(-0.00540965 0.0458758 0)
(-0.0270967 0.112177 0)
(-0.0636039 0.149238 0)
(-0.103622 0.159744 0)
(-0.141249 0.149395 0)
(-0.174517 0.124315 0)
(-0.203082 0.0900835 0)
(-0.227399 0.0514763 0)
(-0.24811 0.0125471 0)
(-0.265514 -0.0231879 0)
(-0.278993 -0.0525778 0)
(-0.285757 -0.0730258 0)
(-0.00693755 0.0616869 0)
(-0.0326807 0.145903 0)
(-0.0733385 0.189521 0)
(-0.115073 0.199375 0)
(-0.151755 0.184896 0)
(-0.182325 0.154728 0)
(-0.207466 0.115796 0)
(-0.228441 0.0733122 0)
(-0.246381 0.0310736 0)
(-0.261754 -0.00820178 0)
(-0.273921 -0.0426676 0)
(-0.280624 -0.0714651 0)
(-0.00917292 0.0810885 0)
(-0.0394775 0.184136 0)
(-0.0826367 0.231683 0)
(-0.122341 0.23754 0)
(-0.153225 0.216391 0)
(-0.176068 0.179836 0)
(-0.193141 0.136021 0)
(-0.206789 0.0902527 0)
(-0.218784 0.045752 0)
(-0.229943 0.00425718 0)
(-0.239921 -0.0336115 0)
(-0.247095 -0.0682521 0)
(-0.0127261 0.105396 0)
(-0.0482399 0.226222 0)
(-0.0906252 0.272252 0)
(-0.122292 0.269052 0)
(-0.140692 0.23824 0)
(-0.149743 0.194395 0)
(-0.153812 0.146322 0)
(-0.156394 0.0988294 0)
(-0.159814 0.0541575 0)
(-0.165175 0.0129131 0)
(-0.172442 -0.0254215 0)
(-0.180575 -0.0622598 0)
(-0.0183685 0.136965 0)
(-0.059188 0.270286 0)
(-0.0939807 0.305137 0)
(-0.108068 0.286332 0)
(-0.105321 0.243368 0)
(-0.0940644 0.192705 0)
(-0.0807434 0.142517 0)
(-0.0695385 0.0961915 0)
(-0.062812 0.0545296 0)
(-0.0615644 0.0169241 0)
(-0.0658421 -0.0181143 0)
(-0.0750374 -0.0527627 0)
(-0.0260255 0.180101 0)
(-0.069172 0.310961 0)
(-0.0823447 0.319084 0)
(-0.0646905 0.278319 0)
(-0.0313038 0.223491 0)
(0.00529242 0.169493 0)
(0.0379818 0.121666 0)
(0.0632403 0.0809044 0)
(0.0796766 0.0462616 0)
(0.0870521 0.0160555 0)
(0.0856338 -0.0118074 0)
(0.0758012 -0.0398298 0)
(-0.0299088 0.238958 0)
(-0.0628901 0.332756 0)
(-0.0280513 0.294135 0)
(0.0385038 0.230741 0)
(0.108088 0.171285 0)
(0.168995 0.122392 0)
(0.21727 0.0841131 0)
(0.252248 0.054362 0)
(0.27471 0.0307502 0)
(0.285797 0.0110912 0)
(0.286419 -0.00666947 0)
(0.276938 -0.0246957 0)
(0.00814662 0.28224 0)
(0.0191539 0.294275 0)
(0.136099 0.20875 0)
(0.257581 0.139872 0)
(0.352257 0.0925602 0)
(0.422111 0.060574 0)
(0.471925 0.0389229 0)
(0.505599 0.0239226 0)
(0.526363 0.0130307 0)
(0.536594 0.00451999 0)
(0.53771 -0.00291412 0)
(0.530128 -0.0104913 0)
(0.299834 0.146331 0)
(0.396607 0.127546 0)
(0.557059 0.0757787 0)
(0.672582 0.0430919 0)
(0.739749 0.0247118 0)
(0.780337 0.0142593 0)
(0.805815 0.00821087 0)
(0.821509 0.00458533 0)
(0.830484 0.00226744 0)
(0.834561 0.00063037 0)
(0.834691 -0.000716024 0)
(0.831137 -0.00209082 0)
(-0.103999 -0.0271021 0)
(-0.0802236 -0.0118976 0)
(-0.0610054 -0.00734274 0)
(-0.0444562 -0.00620955 0)
(-0.0285836 -0.00573947 0)
(-0.0139321 -0.00469132 0)
(-0.00313391 -0.00242287 0)
(0.00043212 0.000436214 0)
(-0.203734 -0.0522778 0)
(-0.177327 -0.0366189 0)
(-0.145441 -0.031136 0)
(-0.111418 -0.0300757 0)
(-0.0763042 -0.028966 0)
(-0.0426728 -0.024738 0)
(-0.0157279 -0.0155463 0)
(-0.00238094 -0.00298924 0)
(-0.256946 -0.0703618 0)
(-0.233465 -0.0667547 0)
(-0.199166 -0.0678332 0)
(-0.157874 -0.0705773 0)
(-0.112283 -0.0702697 0)
(-0.066255 -0.0622089 0)
(-0.02693 -0.0429992 0)
(-0.00505827 -0.0139936 0)
(-0.280492 -0.084956 0)
(-0.26102 -0.0953028 0)
(-0.229143 -0.106797 0)
(-0.187211 -0.116971 0)
(-0.137621 -0.12041 0)
(-0.0843244 -0.110346 0)
(-0.0359063 -0.0807372 0)
(-0.0072051 -0.0306653 0)
(-0.278253 -0.0956959 0)
(-0.264423 -0.118883 0)
(-0.238807 -0.14214 0)
(-0.201733 -0.162488 0)
(-0.154008 -0.173175 0)
(-0.0983803 -0.164514 0)
(-0.043917 -0.12603 0)
(-0.00934561 -0.0519013 0)
(-0.248896 -0.101243 0)
(-0.242962 -0.134876 0)
(-0.227547 -0.169502 0)
(-0.200947 -0.201686 0)
(-0.161533 -0.223235 0)
(-0.109387 -0.22079 0)
(-0.0523226 -0.177207 0)
(-0.0121275 -0.0778136 0)
(-0.187782 -0.0997542 0)
(-0.191958 -0.140145 0)
(-0.190656 -0.183991 0)
(-0.180549 -0.22819 0)
(-0.157197 -0.263826 0)
(-0.116469 -0.273897 0)
(-0.0620359 -0.232387 0)
(-0.0162775 -0.109516 0)
(-0.0881003 -0.0897422 0)
(-0.103601 -0.131833 0)
(-0.119329 -0.180647 0)
(-0.131367 -0.234646 0)
(-0.133007 -0.28596 0)
(-0.114919 -0.315646 0)
(-0.0724595 -0.288033 0)
(-0.022374 -0.149123 0)
(0.0578449 -0.0709843 0)
(0.0320228 -0.108589 0)
(-0.000864623 -0.155689 0)
(-0.0381239 -0.21351 0)
(-0.0729822 -0.277937 0)
(-0.0921567 -0.332638 0)
(-0.078324 -0.336216 0)
(-0.0294944 -0.200157 0)
(0.256972 -0.0455389 0)
(0.225357 -0.0723833 0)
(0.180521 -0.109138 0)
(0.121692 -0.159953 0)
(0.0512873 -0.226973 0)
(-0.019917 -0.30408 0)
(-0.0614258 -0.357625 0)
(-0.0297457 -0.263473 0)
(0.513138 -0.0196522 0)
(0.484657 -0.0324281 0)
(0.441041 -0.051965 0)
(0.377099 -0.0831972 0)
(0.285899 -0.133318 0)
(0.16229 -0.210589 0)
(0.0368508 -0.307631 0)
(0.0176927 -0.298835 0)
(0.823455 -0.00386712 0)
(0.810245 -0.00663634 0)
(0.788652 -0.0114941 0)
(0.753261 -0.0205785 0)
(0.692111 -0.0380541 0)
(0.580246 -0.0715704 0)
(0.414751 -0.127192 0)
(0.30881 -0.149441 0)
)
;

boundaryField
{
    lid
    {
        type            fixedValue;
        value           uniform (1 0 0);
    }
    fixedWalls
    {
        type            noSlip;
    }
    frontAndBack
    {
        type            empty;
    }
}


// ************************************************************************* //
