/*--------------------------------*- C++ -*----------------------------------*\
| =========                 |                                                 |
| \\      /  F ield         | OpenFOAM: The Open Source CFD Toolbox           |
|  \\    /   O peration     | Version:  5.x                                   |
|   \\  /    A nd           | Web:      www.OpenFOAM.org                      |
|    \\/     M anipulation  |                                                 |
\*---------------------------------------------------------------------------*/
FoamFile
{
    version     2.0;
    format      ascii;
    class       volScalarField;
    location    "14.5";
    object      epsilon;
}
// * * * * * * * * * * * * * * * * * * * * * * * * * * * * * * * * * * * * * //

dimensions      [0 2 -3 0 0 0 0];

internalField   nonuniform List<scalar> 
400
(
3.0352e-05
9.52645e-05
0.000353303
0.000688147
0.000910687
0.00108269
0.00122092
0.00135369
0.00146951
0.00158782
0.0016981
0.00181446
0.00192658
0.00199429
0.00202293
0.00201043
0.00184036
0.00141152
0.000865172
0.000607788
0.000130406
0.000345181
0.000850999
0.00111461
0.00117031
0.00119077
0.00119573
0.00123282
0.00127969
0.00136775
0.00148115
0.00163184
0.00181065
0.00202023
0.00224472
0.00244588
0.00253358
0.00249378
0.00194691
0.00126792
0.000406086
0.000969273
0.00117517
0.00119647
0.00115394
0.00113033
0.001113
0.00113228
0.0011914
0.00126618
0.00135981
0.00146976
0.00160202
0.00176333
0.0019568
0.00218078
0.00235239
0.00241366
0.00219545
0.00165735
0.000853896
0.00125118
0.00125765
0.00115758
0.0010703
0.00101597
0.000998992
0.000998665
0.00102494
0.00105607
0.00110575
0.00117862
0.00128773
0.00144309
0.00166138
0.00194591
0.00224167
0.00237319
0.00230701
0.00190843
0.00116975
0.00140377
0.00122907
0.00106121
0.000941863
0.000878182
0.000836768
0.000806419
0.00078892
0.000781865
0.000791388
0.000839701
0.00093358
0.00109286
0.00134292
0.00170406
0.00216016
0.0024209
0.00245559
0.00209597
0.00133958
0.00139781
0.00115364
0.000942346
0.000820461
0.000741117
0.000672573
0.000610102
0.000556808
0.000526321
0.000515998
0.000536821
0.000616916
0.00076805
0.00103151
0.00145204
0.00204867
0.00253319
0.00265832
0.00224743
0.0013675
0.00134927
0.00104738
0.000837806
0.000714066
0.000619874
0.000531021
0.000448277
0.000378753
0.000336255
0.000319294
0.000320609
0.000379818
0.000506656
0.000752455
0.00119485
0.0019079
0.00265629
0.00289757
0.00236854
0.0013482
0.00124611
0.000948557
0.000750671
0.000627673
0.000524542
0.000425254
0.000335488
0.000264099
0.000220513
0.000201785
0.000199174
0.000236408
0.000329685
0.000534948
0.000955244
0.00172721
0.00276417
0.00320317
0.00246928
0.00129884
0.00112934
0.000862138
0.000682342
0.000562762
0.000456712
0.000355343
0.000266841
0.000199878
0.00016076
0.000144452
0.000142439
0.000167542
0.000233059
0.000390477
0.00076609
0.00155898
0.00282232
0.00350594
0.0025437
0.00120542
0.00102604
0.000791301
0.000630126
0.000516739
0.000413455
0.000314831
0.000230767
0.000170036
0.000135086
0.000120781
0.000120559
0.000139134
0.000188329
0.000309707
0.000628765
0.00141684
0.00285949
0.00383407
0.00260439
0.00110539
0.00094065
0.000735769
0.000593642
0.000487701
0.000388777
0.000296963
0.00022143
0.000166449
0.000132586
0.000116212
0.000116219
0.000131065
0.00017201
0.000273065
0.00054809
0.0012957
0.00289269
0.00413416
0.00264125
0.00101538
0.00088301
0.000697834
0.000568714
0.000470333
0.000381944
0.000298673
0.000226763
0.00017386
0.000140694
0.000124346
0.000124624
0.000135553
0.000169842
0.000261831
0.000512501
0.00122353
0.00293964
0.00440828
0.00266579
0.00092102
0.000843124
0.000677342
0.000561407
0.000471231
0.000386659
0.000308341
0.000242069
0.000192819
0.000160825
0.000143761
0.00014432
0.000154648
0.000186482
0.000269012
0.000502789
0.00119448
0.00300201
0.00459983
0.00267706
0.000829116
0.000821809
0.000686233
0.000569565
0.000481474
0.000401499
0.000330252
0.000270659
0.000224647
0.000193573
0.00017476
0.000175224
0.000185473
0.000217844
0.000301233
0.000527674
0.00119269
0.0030959
0.00469522
0.0026825
0.000729545
0.000796918
0.000706391
0.000594437
0.000508426
0.000432182
0.000364913
0.000309109
0.000265763
0.000236317
0.000216846
0.000217618
0.000228918
0.000264422
0.000354492
0.000592743
0.001263
0.00324437
0.00472949
0.0026189
0.000619995
0.000786962
0.000749492
0.000656977
0.000570328
0.000494783
0.00042715
0.0003704
0.000325385
0.00029492
0.000273816
0.000275285
0.000289433
0.000332618
0.00043929
0.000711204
0.00141067
0.00344146
0.00456642
0.00251242
0.000508311
0.00074541
0.000769804
0.000738091
0.000672208
0.000599807
0.000529598
0.000468177
0.000418729
0.000383854
0.000363643
0.000368007
0.000390611
0.000454462
0.000603506
0.000964681
0.00174946
0.00371204
0.00420729
0.00236691
0.000343708
0.000653148
0.000848925
0.00091463
0.000897552
0.000841438
0.000763016
0.000690507
0.00063461
0.000593636
0.000591442
0.000611892
0.000670305
0.000810841
0.00110001
0.00174379
0.00269916
0.00412077
0.00403312
0.00218371
0.000348646
0.000645012
0.0010564
0.00127264
0.00135033
0.00134907
0.00132866
0.00130525
0.00131546
0.00135902
0.00145576
0.00165319
0.0019302
0.00238533
0.0029888
0.00389437
0.00474835
0.00466151
0.00408834
0.00194357
0.000253383
0.000385451
0.000679651
0.00097379
0.00119279
0.0013435
0.00142516
0.00147921
0.00150264
0.00152036
0.0015258
0.00153615
0.0015451
0.00156497
0.00158294
0.00163505
0.00170645
0.00179622
0.00177844
0.00158652
)
;

boundaryField
{
    movingWall
    {
        Cmu             0.09;
        kappa           0.41;
        E               9.8;
        type            epsilonWallFunction;
        value           nonuniform List<scalar> 
20
(
0.000253383
0.000385451
0.000679651
0.00097379
0.00119279
0.0013435
0.00142516
0.00147921
0.00150264
0.00152036
0.0015258
0.00153615
0.0015451
0.00156497
0.00158294
0.00163505
0.00170645
0.00179622
0.00177844
0.00158652
)
;
    }
    fixedWalls
    {
        Cmu             0.09;
        kappa           0.41;
        E               9.8;
        type            epsilonWallFunction;
        value           nonuniform List<scalar> 
60
(
3.0352e-05
0.000130406
0.000406086
0.000853896
0.00116975
0.00133958
0.0013675
0.0013482
0.00129884
0.00120542
0.00110539
0.00101538
0.00092102
0.000829116
0.000729545
0.000619995
0.000508311
0.000343708
0.000348646
0.000253383
0.000607788
0.00126792
0.00165735
0.00190843
0.00209597
0.00224743
0.00236854
0.00246928
0.0025437
0.00260439
0.00264125
0.00266579
0.00267706
0.0026825
0.0026189
0.00251242
0.00236691
0.00218371
0.00194357
0.00158652
3.0352e-05
9.52645e-05
0.000353303
0.000688147
0.000910687
0.00108269
0.00122092
0.00135369
0.00146951
0.00158782
0.0016981
0.00181446
0.00192658
0.00199429
0.00202293
0.00201043
0.00184036
0.00141152
0.000865172
0.000607788
)
;
    }
    frontAndBack
    {
        type            empty;
    }
}


// ************************************************************************* //
