/*--------------------------------*- C++ -*----------------------------------*\
| =========                 |                                                 |
| \\      /  F ield         | OpenFOAM: The Open Source CFD Toolbox           |
|  \\    /   O peration     | Version:  5.x                                   |
|   \\  /    A nd           | Web:      www.OpenFOAM.org                      |
|    \\/     M anipulation  |                                                 |
\*---------------------------------------------------------------------------*/
FoamFile
{
    version     2.0;
    format      ascii;
    class       volScalarField;
    location    "14.5";
    object      k;
}
// * * * * * * * * * * * * * * * * * * * * * * * * * * * * * * * * * * * * * //

dimensions      [0 2 -2 0 0 0 0];

internalField   nonuniform List<scalar> 
400
(
9.48585e-06
2.9774e-05
0.00011042
0.000215068
0.000284617
0.000338373
0.000381573
0.000423069
0.000459267
0.000496242
0.000530708
0.000567075
0.000602116
0.000623277
0.000632227
0.00062832
0.000575167
0.000441143
0.000270395
0.000189954
4.07556e-05
0.000135289
0.000279289
0.000437664
0.000506144
0.000584931
0.000631225
0.000697885
0.000752984
0.000818387
0.00088082
0.000946419
0.00100501
0.00106889
0.00111931
0.0011425
0.00114413
0.00100095
0.000659603
0.000396272
0.000126913
0.000407907
0.000561202
0.000644713
0.00069707
0.000745801
0.000781565
0.000830804
0.000874239
0.000925441
0.000972984
0.00102164
0.00106892
0.00112055
0.00116804
0.00119712
0.00120628
0.0011372
0.000813214
0.000517981
0.000266859
0.00061977
0.000701927
0.000737623
0.000762116
0.000781941
0.000805409
0.000836801
0.000867033
0.00089903
0.000927985
0.000964383
0.00101145
0.00107069
0.001141
0.00120195
0.00122703
0.00121348
0.000957654
0.000596451
0.000365569
0.000735052
0.000759836
0.000759211
0.000761991
0.000774192
0.000786142
0.000792113
0.00079084
0.000787636
0.000793176
0.000820574
0.000870075
0.000946839
0.00105433
0.00118335
0.00126022
0.0012766
0.00108117
0.00065506
0.000418648
0.000770515
0.000770389
0.00075515
0.000749926
0.000744963
0.000724621
0.000690189
0.000656953
0.000638649
0.000632742
0.000647901
0.000697957
0.000786109
0.000923419
0.00111016
0.00128167
0.00134291
0.00120912
0.000702393
0.000427373
0.000763396
0.000763715
0.000740683
0.000719195
0.000686868
0.000640186
0.000584657
0.000535702
0.000505359
0.00049346
0.0004976
0.00054219
0.000629916
0.000779331
0.00100664
0.00128608
0.00141658
0.00132987
0.00074024
0.000421345
0.00074378
0.000745748
0.000712247
0.000679351
0.000631094
0.000568174
0.000501359
0.000445148
0.000409485
0.000394675
0.000393846
0.000429244
0.000507375
0.000650391
0.000892033
0.00124307
0.00148248
0.00146258
0.00077172
0.000405919
0.000704602
0.000713921
0.000681932
0.000643289
0.000586553
0.000516047
0.00044545
0.000388182
0.00035202
0.000336721
0.000335435
0.000362574
0.000426687
0.000554971
0.000791316
0.00117679
0.00154314
0.00157848
0.000794975
0.000376723
0.000668882
0.000682484
0.000654549
0.000614863
0.000555615
0.00048398
0.000414138
0.000359193
0.000324288
0.000309216
0.000309499
0.000331827
0.000385587
0.000495484
0.000714946
0.00111064
0.00158969
0.00169636
0.000813937
0.000345463
0.00062463
0.000649016
0.0006296
0.000592667
0.000536548
0.00046815
0.00040411
0.000353021
0.000318865
0.000301793
0.000302676
0.000321706
0.000368811
0.000467344
0.000669435
0.00105914
0.00162298
0.00179553
0.00082545
0.000317333
0.000585494
0.000622429
0.000611468
0.000579112
0.000527657
0.000468296
0.00040793
0.000359004
0.000325764
0.000308731
0.000309505
0.000324014
0.000365678
0.000458155
0.000649183
0.00102876
0.0016524
0.0018818
0.000833115
0.000287843
0.000537687
0.000593922
0.000592391
0.000571526
0.000528629
0.00047403
0.000419854
0.000375297
0.000344081
0.000327514
0.000328919
0.00034262
0.000381018
0.000465508
0.000644745
0.0010156
0.00167967
0.00192459
0.000836636
0.000259121
0.000503694
0.000577428
0.000581202
0.000569753
0.000535706
0.000488306
0.000442252
0.00040286
0.000374087
0.000357801
0.000359572
0.000373245
0.000411111
0.000493759
0.000665536
0.00101405
0.00170776
0.00193998
0.000838334
0.000228002
0.000455523
0.000552954
0.00057702
0.000572628
0.000551816
0.000512112
0.000472351
0.000438117
0.000412616
0.000397708
0.000400007
0.000414172
0.000452531
0.000535181
0.000706872
0.00103873
0.00173376
0.0019354
0.000818452
0.000193765
0.000422225
0.000539991
0.000581766
0.000585437
0.000576286
0.000551296
0.000517074
0.000485881
0.000461933
0.000446902
0.000449448
0.000464289
0.000504214
0.000589301
0.000769276
0.00108407
0.00174708
0.00184449
0.000785175
0.00015886
0.000364758
0.000507789
0.000591043
0.000616715
0.00061451
0.000601053
0.00057309
0.000544403
0.000521393
0.000507648
0.000511528
0.00052932
0.000575251
0.000669455
0.000873925
0.00118394
0.00175093
0.00170881
0.000739697
0.000107416
0.000304409
0.000514864
0.000637148
0.000711171
0.000718567
0.000710398
0.000688701
0.00065735
0.000631715
0.000625285
0.000635186
0.00066518
0.00073735
0.000864443
0.00113587
0.0014522
0.00174967
0.00155025
0.000682444
0.000108957
0.000317701
0.000549805
0.00069136
0.000773781
0.000813757
0.000829489
0.000845914
0.000861778
0.000893568
0.000938262
0.0010184
0.001122
0.0012874
0.00148256
0.00177672
0.00192082
0.00181515
0.00145078
0.000607394
7.91861e-05
0.000120459
0.0002124
0.000304323
0.000372766
0.000419863
0.000445385
0.000462277
0.0004696
0.000475137
0.000476836
0.000480071
0.000482865
0.000489073
0.00049469
0.000510974
0.000533288
0.000561342
0.000555786
0.000495811
)
;

boundaryField
{
    movingWall
    {
        type            kqRWallFunction;
        value           nonuniform List<scalar> 
20
(
7.91861e-05
0.000120459
0.0002124
0.000304323
0.000372766
0.000419863
0.000445385
0.000462277
0.0004696
0.000475137
0.000476836
0.000480071
0.000482865
0.000489073
0.00049469
0.000510974
0.000533288
0.000561342
0.000555786
0.000495811
)
;
    }
    fixedWalls
    {
        type            kqRWallFunction;
        value           nonuniform List<scalar> 
60
(
9.48585e-06
4.07556e-05
0.000126913
0.000266859
0.000365569
0.000418648
0.000427373
0.000421345
0.000405919
0.000376723
0.000345463
0.000317333
0.000287843
0.000259121
0.000228002
0.000193765
0.00015886
0.000107416
0.000108957
7.91861e-05
0.000189954
0.000396272
0.000517981
0.000596451
0.00065506
0.000702393
0.00074024
0.00077172
0.000794975
0.000813937
0.00082545
0.000833115
0.000836636
0.000838334
0.000818452
0.000785175
0.000739697
0.000682444
0.000607394
0.000495811
9.48585e-06
2.9774e-05
0.00011042
0.000215068
0.000284617
0.000338373
0.000381573
0.000423069
0.000459267
0.000496242
0.000530708
0.000567075
0.000602116
0.000623277
0.000632227
0.00062832
0.000575167
0.000441143
0.000270395
0.000189954
)
;
    }
    frontAndBack
    {
        type            empty;
    }
}


// ************************************************************************* //
