/*--------------------------------*- C++ -*----------------------------------*\
| =========                 |                                                 |
| \\      /  F ield         | OpenFOAM: The Open Source CFD Toolbox           |
|  \\    /   O peration     | Version:  5.x                                   |
|   \\  /    A nd           | Web:      www.OpenFOAM.org                      |
|    \\/     M anipulation  |                                                 |
\*---------------------------------------------------------------------------*/
FoamFile
{
    version     2.0;
    format      ascii;
    class       volScalarField;
    location    "14.5";
    object      nut;
}
// * * * * * * * * * * * * * * * * * * * * * * * * * * * * * * * * * * * * * //

dimensions      [0 2 -1 0 0 0 0];

internalField   nonuniform List<scalar> 
400
(
2.66814e-07
8.37505e-07
3.10595e-06
6.04943e-06
8.00563e-06
9.51764e-06
1.07328e-05
1.19e-05
1.29181e-05
1.39582e-05
1.49276e-05
1.59506e-05
1.69362e-05
1.75314e-05
1.77831e-05
1.76732e-05
1.61782e-05
1.24084e-05
7.60564e-06
5.34302e-06
1.14636e-06
4.77225e-06
8.24936e-06
1.54668e-05
1.97011e-05
2.58596e-05
2.99902e-05
3.55557e-05
3.98758e-05
4.40711e-05
4.71432e-05
4.94005e-05
5.0205e-05
5.08992e-05
5.02319e-05
4.80308e-05
4.65004e-05
3.61586e-05
2.01123e-05
1.11464e-05
3.56972e-06
1.54497e-05
2.41201e-05
3.12661e-05
3.78978e-05
4.42877e-05
4.93941e-05
5.48636e-05
5.77359e-05
6.08756e-05
6.26579e-05
6.39138e-05
6.41893e-05
6.40876e-05
6.27497e-05
5.91432e-05
5.56713e-05
4.82215e-05
2.711e-05
1.45699e-05
7.50584e-06
2.76302e-05
3.52588e-05
4.2302e-05
4.88405e-05
5.41638e-05
5.84404e-05
6.31056e-05
6.60111e-05
6.88808e-05
7.00922e-05
7.10178e-05
7.15004e-05
7.14954e-05
7.05256e-05
6.68185e-05
6.04476e-05
5.58438e-05
3.57775e-05
1.6777e-05
1.02823e-05
3.46404e-05
4.22773e-05
4.88841e-05
5.54823e-05
6.14265e-05
6.64721e-05
7.00254e-05
7.13488e-05
7.14104e-05
7.15471e-05
7.21695e-05
7.29801e-05
7.38295e-05
7.44986e-05
7.39575e-05
6.61688e-05
6.05863e-05
4.28427e-05
1.84255e-05
1.17753e-05
3.82257e-05
4.63012e-05
5.44626e-05
6.1691e-05
6.73946e-05
7.02627e-05
7.0271e-05
6.97599e-05
6.97455e-05
6.9831e-05
7.0377e-05
7.1068e-05
7.24134e-05
7.43987e-05
7.63891e-05
7.21638e-05
6.40725e-05
4.94962e-05
1.97568e-05
1.20207e-05
3.88726e-05
5.0119e-05
5.89337e-05
6.51925e-05
6.84992e-05
6.94615e-05
6.86274e-05
6.81918e-05
6.83557e-05
6.86367e-05
6.95069e-05
6.9658e-05
7.04847e-05
7.26451e-05
7.63266e-05
7.80228e-05
6.79903e-05
5.49323e-05
2.08212e-05
1.18512e-05
3.99553e-05
5.2767e-05
6.08211e-05
6.61755e-05
6.83362e-05
6.83214e-05
6.74313e-05
6.75281e-05
6.84359e-05
6.94756e-05
7.00909e-05
7.01436e-05
7.02751e-05
7.11673e-05
7.49704e-05
8.05167e-05
7.15578e-05
6.01037e-05
2.17066e-05
1.14173e-05
3.95646e-05
5.32066e-05
6.13371e-05
6.61804e-05
6.77976e-05
6.74487e-05
6.6925e-05
6.78497e-05
6.93744e-05
7.06413e-05
7.10936e-05
7.06175e-05
7.03063e-05
7.09885e-05
7.35635e-05
7.99472e-05
7.5936e-05
6.39615e-05
2.23605e-05
1.05962e-05
3.92444e-05
5.29768e-05
6.11926e-05
6.58458e-05
6.7199e-05
6.69607e-05
6.68896e-05
6.82899e-05
7.00635e-05
7.12474e-05
7.15089e-05
7.12246e-05
7.10513e-05
7.13429e-05
7.31646e-05
7.8356e-05
7.95391e-05
6.7549e-05
2.28938e-05
9.71693e-06
3.73301e-05
5.15242e-05
6.00963e-05
6.48203e-05
6.66438e-05
6.64219e-05
6.63752e-05
6.7385e-05
6.90174e-05
7.0536e-05
7.09454e-05
7.1068e-05
7.11697e-05
7.19862e-05
7.35882e-05
7.79194e-05
8.19532e-05
7.01847e-05
2.32175e-05
8.92574e-06
3.49399e-05
4.99654e-05
5.91692e-05
6.41745e-05
6.56063e-05
6.60826e-05
6.60453e-05
6.67179e-05
6.7885e-05
6.89875e-05
6.91793e-05
6.97047e-05
7.08591e-05
7.21517e-05
7.40086e-05
7.785e-05
8.35947e-05
7.2297e-05
2.34329e-05
8.09627e-06
3.0861e-05
4.68698e-05
5.62576e-05
6.23851e-05
6.50452e-05
6.55877e-05
6.55391e-05
6.5742e-05
6.62537e-05
6.71527e-05
6.74677e-05
6.83161e-05
7.00642e-05
7.24978e-05
7.44102e-05
7.77158e-05
8.45818e-05
7.24733e-05
2.35319e-05
7.2884e-06
2.77847e-05
4.37287e-05
5.3377e-05
6.06796e-05
6.43296e-05
6.49801e-05
6.50369e-05
6.50206e-05
6.50645e-05
6.59303e-05
6.64081e-05
6.76005e-05
6.98256e-05
7.284e-05
7.55474e-05
7.7595e-05
8.47833e-05
7.21411e-05
2.35796e-05
6.41312e-06
2.34341e-05
3.89561e-05
5.04102e-05
5.80444e-05
6.34109e-05
6.46819e-05
6.49621e-05
6.50022e-05
6.48394e-05
6.56477e-05
6.61733e-05
6.7441e-05
6.97014e-05
7.27171e-05
7.58678e-05
7.6885e-05
8.3385e-05
7.128e-05
2.30202e-05
5.45011e-06
2.03881e-05
3.50146e-05
4.63648e-05
5.40852e-05
6.04093e-05
6.4037e-05
6.49647e-05
6.52987e-05
6.51173e-05
6.56461e-05
6.60416e-05
6.70302e-05
6.87903e-05
7.11484e-05
7.48881e-05
7.49775e-05
7.98229e-05
6.70534e-05
2.20843e-05
4.46828e-06
1.60641e-05
3.01459e-05
4.25962e-05
5.09223e-05
5.66615e-05
6.13935e-05
6.31363e-05
6.37017e-05
6.37392e-05
6.37812e-05
6.39919e-05
6.45557e-05
6.5533e-05
6.6835e-05
7.12536e-05
7.21104e-05
7.43309e-05
6.24636e-05
2.0805e-05
3.02127e-06
1.27687e-05
2.81034e-05
3.99464e-05
5.07143e-05
5.52275e-05
5.95267e-05
6.18209e-05
6.12815e-05
6.05013e-05
5.94959e-05
5.93431e-05
5.94084e-05
6.03469e-05
6.1139e-05
6.65892e-05
7.03184e-05
6.68616e-05
5.363e-05
1.91947e-05
3.06456e-06
1.40835e-05
2.57533e-05
3.38023e-05
3.99061e-05
4.41771e-05
4.66068e-05
4.93401e-05
5.08109e-05
5.28776e-05
5.44252e-05
5.64618e-05
5.86983e-05
6.2535e-05
6.61866e-05
7.29527e-05
6.99319e-05
6.36119e-05
4.6334e-05
1.70838e-05
2.22722e-06
3.38806e-06
5.97403e-06
8.55948e-06
1.04845e-05
1.18092e-05
1.25271e-05
1.30022e-05
1.32082e-05
1.33639e-05
1.34117e-05
1.35026e-05
1.35812e-05
1.37558e-05
1.39137e-05
1.43718e-05
1.49993e-05
1.57884e-05
1.56321e-05
1.39454e-05
)
;

boundaryField
{
    movingWall
    {
        type            nutkWallFunction;
        Cmu             0.09;
        kappa           0.41;
        E               9.8;
        value           uniform 0;
    }
    fixedWalls
    {
        type            nutkWallFunction;
        Cmu             0.09;
        kappa           0.41;
        E               9.8;
        value           uniform 0;
    }
    frontAndBack
    {
        type            empty;
    }
}


// ************************************************************************* //
