/*--------------------------------*- C++ -*----------------------------------*\
| =========                 |                                                 |
| \\      /  F ield         | OpenFOAM: The Open Source CFD Toolbox           |
|  \\    /   O peration     | Version:  5.x                                   |
|   \\  /    A nd           | Web:      www.OpenFOAM.org                      |
|    \\/     M anipulation  |                                                 |
\*---------------------------------------------------------------------------*/
FoamFile
{
    version     2.0;
    format      ascii;
    class       volScalarField;
    location    "14.5";
    object      p;
}
// * * * * * * * * * * * * * * * * * * * * * * * * * * * * * * * * * * * * * //

dimensions      [0 2 -2 0 0 0 0];

internalField   nonuniform List<scalar> 
400
(
-4.67803e-10
-8.92028e-05
-0.000153204
-0.000437399
-0.00134172
-0.00282454
-0.00454241
-0.00618306
-0.00750808
-0.00838151
-0.00868916
-0.00832928
-0.00729746
-0.00558976
-0.00321632
-0.000353108
0.00262571
0.00512086
0.00658841
0.00690858
0.000103106
-4.46235e-06
-0.000254573
-0.00090762
-0.00206926
-0.00363708
-0.00534315
-0.00693865
-0.00823554
-0.00910703
-0.00944933
-0.00920036
-0.00830506
-0.00673605
-0.0045329
-0.00181127
0.00112365
0.00376613
0.0055604
0.00629299
0.000267072
-8.10452e-05
-0.000737617
-0.00183185
-0.00332766
-0.00503245
-0.00674204
-0.00828682
-0.00953496
-0.010356
-0.010674
-0.0104546
-0.00967129
-0.00831327
-0.00639742
-0.00399729
-0.00129673
0.00136543
0.0034946
0.00457452
5.81009e-06
-0.000578902
-0.00166052
-0.00317767
-0.00494881
-0.00676623
-0.00846768
-0.00992968
-0.0110521
-0.0117701
-0.0120466
-0.0118561
-0.011179
-0.0100168
-0.00838434
-0.00633008
-0.00395774
-0.00147431
0.000724151
0.0019209
-0.000846338
-0.00163457
-0.00301777
-0.00478087
-0.0066767
-0.00850741
-0.0101399
-0.0114867
-0.0124919
-0.0131239
-0.013363
-0.0131961
-0.0126177
-0.0116345
-0.0102627
-0.00853655
-0.00651781
-0.00433443
-0.00227787
-0.00110288
-0.00224807
-0.00313411
-0.00462849
-0.00644346
-0.0083253
-0.0100861
-0.0116135
-0.0128453
-0.0137503
-0.0143113
-0.0145195
-0.0143726
-0.0138756
-0.0130415
-0.01189
-0.0104493
-0.00876259
-0.006922
-0.00519433
-0.00406461
-0.00390018
-0.00479327
-0.00624863
-0.00799264
-0.00977873
-0.0114274
-0.0128393
-0.0139657
-0.0147865
-0.0152922
-0.0154797
-0.0153525
-0.0149205
-0.0142022
-0.0132225
-0.0120103
-0.0106055
-0.00908521
-0.0076955
-0.00667338
-0.00546245
-0.00631074
-0.00766079
-0.00928912
-0.010954
-0.0124848
-0.0137906
-0.0148293
-0.0155852
-0.0160517
-0.0162282
-0.0161193
-0.0157371
-0.0151032
-0.0142487
-0.0132078
-0.0120228
-0.0107671
-0.00967389
-0.00875231
-0.00668984
-0.00748472
-0.00871821
-0.0102357
-0.0117919
-0.0132248
-0.0144491
-0.015425
-0.0161372
-0.0165794
-0.016751
-0.0166563
-0.0163077
-0.0157286
-0.0149558
-0.0140327
-0.0130083
-0.0119408
-0.0110693
-0.0102326
-0.0074777
-0.00819359
-0.00933501
-0.0107773
-0.0122565
-0.0136256
-0.0148019
-0.0157437
-0.0164336
-0.0168644
-0.0170345
-0.0169476
-0.0166158
-0.0160635
-0.0153323
-0.0144761
-0.0135569
-0.0125973
-0.0118999
-0.0110634
-0.00777809
-0.00841239
-0.00949763
-0.0108938
-0.0123332
-0.0136774
-0.0148409
-0.0157776
-0.0164663
-0.0168975
-0.0170686
-0.0169823
-0.0166504
-0.0160984
-0.0153722
-0.014534
-0.0136642
-0.0127236
-0.0121943
-0.0112252
-0.00758529
-0.00817129
-0.00921951
-0.0105931
-0.0120265
-0.0133791
-0.0145621
-0.0155217
-0.0162302
-0.0166743
-0.0168492
-0.0167563
-0.0164079
-0.0158309
-0.0150761
-0.0142143
-0.0133251
-0.0123582
-0.0119993
-0.0107215
-0.00698358
-0.00754317
-0.00856266
-0.00990863
-0.0113553
-0.0127414
-0.0139708
-0.014979
-0.0157282
-0.0161984
-0.0163814
-0.0162766
-0.0158969
-0.0152714
-0.0144564
-0.0135264
-0.0125748
-0.0115903
-0.0112522
-0.00964916
-0.00610338
-0.0066274
-0.00759916
-0.00889631
-0.0103463
-0.0117789
-0.013078
-0.0141599
-0.0149716
-0.0154837
-0.0156823
-0.0155637
-0.0151411
-0.0144463
-0.0135419
-0.0125068
-0.0114621
-0.0104207
-0.00998562
-0.00815273
-0.00510836
-0.00556015
-0.00642251
-0.00762637
-0.00905336
-0.0105348
-0.0119208
-0.0130982
-0.0139937
-0.0145647
-0.0147906
-0.0146628
-0.0141915
-0.0134116
-0.0123928
-0.0112158
-0.01003
-0.00885147
-0.00827315
-0.00624703
-0.00419734
-0.00448374
-0.00511666
-0.00615373
-0.00753011
-0.0090607
-0.0105486
-0.0118424
-0.0128443
-0.0134956
-0.0137673
-0.0136478
-0.0131363
-0.0122683
-0.011116
-0.0097529
-0.00834617
-0.00690338
-0.00605345
-0.0035476
-0.00355834
-0.00352362
-0.00379652
-0.00460216
-0.00590761
-0.00748414
-0.00907912
-0.0105018
-0.0116289
-0.0123813
-0.0127181
-0.012619
-0.0121043
-0.0111651
-0.00987095
-0.00826684
-0.00651159
-0.00456222
-0.00294104
0.00105227
-0.00323929
-0.00268475
-0.00251389
-0.00307498
-0.00430863
-0.00592269
-0.00762304
-0.00918576
-0.0104595
-0.0113424
-0.0117813
-0.0117448
-0.0112408
-0.01026
-0.00883403
-0.00693092
-0.00464894
-0.00171217
0.00178092
0.00913196
-0.00318572
-0.00194827
-0.00144244
-0.00184594
-0.00302236
-0.00465479
-0.0064368
-0.0081226
-0.00953223
-0.0105463
-0.0110968
-0.0111485
-0.0106873
-0.00968809
-0.00813828
-0.00591426
-0.00287249
0.00180395
0.00872482
0.0211441
-0.00358428
-0.000724732
2.63066e-07
-0.000556011
-0.0017835
-0.00345517
-0.00532
-0.00712
-0.00865429
-0.0097846
-0.0104319
-0.010551
-0.0101155
-0.00910327
-0.00748178
-0.00506656
-0.000958811
0.00611722
0.0177183
0.0340018
)
;

boundaryField
{
    movingWall
    {
        type            zeroGradient;
    }
    fixedWalls
    {
        type            zeroGradient;
    }
    frontAndBack
    {
        type            empty;
    }
}


// ************************************************************************* //
