/*--------------------------------*- C++ -*----------------------------------*\
| =========                 |                                                 |
| \\      /  F ield         | OpenFOAM: The Open Source CFD Toolbox           |
|  \\    /   O peration     | Version:  5.x                                   |
|   \\  /    A nd           | Web:      www.OpenFOAM.org                      |
|    \\/     M anipulation  |                                                 |
\*---------------------------------------------------------------------------*/
FoamFile
{
    version     2.0;
    format      ascii;
    class       surfaceScalarField;
    location    "14.5";
    object      phi;
}
// * * * * * * * * * * * * * * * * * * * * * * * * * * * * * * * * * * * * * //

dimensions      [0 3 -1 0 0 0 0];

internalField   nonuniform List<scalar> 
760
(
1.35228e-07
-1.35228e-07
-1.38964e-07
2.74192e-07
-9.72491e-07
8.33527e-07
-2.26478e-06
1.29229e-06
-3.6582e-06
1.39343e-06
-4.91005e-06
1.25185e-06
-5.97117e-06
1.06112e-06
-6.81437e-06
8.43198e-07
-7.43303e-06
6.18654e-07
-7.83415e-06
4.01126e-07
-8.02968e-06
1.95525e-07
-8.00845e-06
-2.12223e-08
-7.7861e-06
-2.22355e-07
-7.35327e-06
-4.32835e-07
-6.64815e-06
-7.05117e-07
-5.64779e-06
-1.00036e-06
-4.30113e-06
-1.34666e-06
-2.66647e-06
-1.63466e-06
-9.83049e-07
-1.68342e-06
-9.83049e-07
-4.2363e-07
2.88402e-07
-1.42916e-06
1.27972e-06
-2.77485e-06
2.17922e-06
-4.02175e-06
2.53918e-06
-5.09261e-06
2.46429e-06
-6.03997e-06
2.19921e-06
-6.81981e-06
1.84096e-06
-7.42678e-06
1.45017e-06
-7.87454e-06
1.06641e-06
-8.16275e-06
6.89331e-07
-8.2743e-06
3.07082e-07
-8.21239e-06
-8.31323e-08
-7.97354e-06
-4.61204e-07
-7.53451e-06
-8.71872e-07
-6.89473e-06
-1.34489e-06
-6.01229e-06
-1.8828e-06
-4.85721e-06
-2.50175e-06
-3.37351e-06
-3.11836e-06
-1.62499e-06
-3.43193e-06
-2.60804e-06
-1.01812e-06
1.30653e-06
-2.33567e-06
2.59727e-06
-3.50382e-06
3.34737e-06
-4.48638e-06
3.52174e-06
-5.31872e-06
3.29663e-06
-6.00883e-06
2.88932e-06
-6.55624e-06
2.38837e-06
-6.95351e-06
1.84743e-06
-7.20993e-06
1.32284e-06
-7.33153e-06
8.10925e-07
-7.33621e-06
3.11763e-07
-7.23327e-06
-1.86065e-07
-7.00418e-06
-6.90297e-07
-6.63107e-06
-1.24498e-06
-6.10383e-06
-1.87213e-06
-5.3943e-06
-2.59233e-06
-4.48088e-06
-3.41517e-06
-3.30859e-06
-4.29064e-06
-1.80987e-06
-4.93066e-06
-4.41791e-06
-1.24416e-06
2.55069e-06
-2.45843e-06
3.81154e-06
-3.45067e-06
4.33961e-06
-4.23393e-06
4.305e-06
-4.85844e-06
3.92114e-06
-5.34008e-06
3.37097e-06
-5.69249e-06
2.74077e-06
-5.93977e-06
2.09471e-06
-6.08977e-06
1.47284e-06
-6.1507e-06
8.71851e-07
-6.12511e-06
2.86181e-07
-6.01262e-06
-2.98561e-07
-5.80198e-06
-9.00937e-07
-5.49188e-06
-1.55508e-06
-5.07229e-06
-2.29172e-06
-4.52213e-06
-3.1425e-06
-3.81456e-06
-4.12274e-06
-2.90324e-06
-5.20197e-06
-1.65296e-06
-6.18093e-06
-6.07087e-06
-1.17545e-06
3.72614e-06
-2.21143e-06
4.84753e-06
-3.02654e-06
5.15472e-06
-3.65153e-06
4.92999e-06
-4.12396e-06
4.39357e-06
-4.46818e-06
3.71518e-06
-4.71002e-06
2.98262e-06
-4.87255e-06
2.25724e-06
-4.96203e-06
1.56232e-06
-4.98301e-06
8.92836e-07
-4.9361e-06
2.39272e-07
-4.82054e-06
-4.14121e-07
-4.63317e-06
-1.08831e-06
-4.37565e-06
-1.8126e-06
-4.04548e-06
-2.62189e-06
-3.63007e-06
-3.5579e-06
-3.09581e-06
-4.657e-06
-2.38218e-06
-5.9156e-06
-1.39195e-06
-7.17116e-06
-7.46283e-06
-9.68792e-07
4.69493e-06
-1.80602e-06
5.68475e-06
-2.45966e-06
5.80836e-06
-2.94993e-06
5.42026e-06
-3.30865e-06
4.75229e-06
-3.56283e-06
3.96936e-06
-3.73883e-06
3.15862e-06
-3.85308e-06
2.37148e-06
-3.91081e-06
1.62005e-06
-3.91474e-06
8.96773e-07
-3.86483e-06
1.89361e-07
-3.7599e-06
-5.19053e-07
-3.59935e-06
-1.24886e-06
-3.38631e-06
-2.02564e-06
-3.12474e-06
-2.88346e-06
-2.81366e-06
-3.86898e-06
-2.43481e-06
-5.03585e-06
-1.92303e-06
-6.42738e-06
-1.13554e-06
-7.95865e-06
-8.59837e-06
-7.35824e-07
5.43075e-06
-1.36464e-06
6.31357e-06
-1.86058e-06
6.3043e-06
-2.22958e-06
5.78926e-06
-2.49852e-06
5.02122e-06
-2.68984e-06
4.16068e-06
-2.82346e-06
3.29224e-06
-2.9104e-06
2.45842e-06
-2.95498e-06
1.66462e-06
-2.95874e-06
9.00534e-07
-2.92024e-06
1.50862e-07
-2.8373e-06
-6.01989e-07
-2.70904e-06
-1.37712e-06
-2.53901e-06
-2.19567e-06
-2.33507e-06
-3.0874e-06
-2.10311e-06
-4.10094e-06
-1.83449e-06
-5.30447e-06
-1.47671e-06
-6.78516e-06
-9.35443e-07
-8.49992e-06
-9.53381e-06
-4.85048e-07
5.9158e-06
-9.27751e-07
6.75627e-06
-1.27388e-06
6.65044e-06
-1.53384e-06
6.04922e-06
-1.72699e-06
5.21437e-06
-1.86838e-06
4.30207e-06
-1.97063e-06
3.3945e-06
-2.04025e-06
2.52803e-06
-2.08006e-06
1.70443e-06
-2.09044e-06
9.10909e-07
-2.06923e-06
1.29659e-07
-2.01385e-06
-6.57375e-07
-1.92319e-06
-1.46778e-06
-1.80047e-06
-2.31838e-06
-1.65528e-06
-3.23259e-06
-1.49864e-06
-4.25758e-06
-1.32756e-06
-5.47555e-06
-1.09864e-06
-7.01408e-06
-7.2353e-07
-8.87503e-06
-1.02573e-05
-2.63521e-07
6.17932e-06
-5.17247e-07
7.01e-06
-7.15664e-07
6.84885e-06
-8.74656e-07
6.20822e-06
-9.98414e-07
5.33812e-06
-1.09427e-06
4.39793e-06
-1.16815e-06
3.46838e-06
-1.22251e-06
2.58239e-06
-1.25847e-06
1.7404e-06
-1.27575e-06
9.28182e-07
-1.2726e-06
1.26511e-07
-1.24677e-06
-6.83203e-07
-1.19738e-06
-1.51717e-06
-1.12716e-06
-2.38861e-06
-1.04549e-06
-3.31426e-06
-9.65576e-07
-4.33749e-06
-8.88031e-07
-5.55309e-06
-7.80904e-07
-7.12121e-06
-5.7046e-07
-9.08547e-06
-1.08278e-05
-4.5023e-08
6.22434e-06
-1.27035e-07
7.09201e-06
-1.93948e-07
6.91577e-06
-2.52345e-07
6.26661e-06
-3.04799e-07
5.39058e-06
-3.53255e-07
4.44639e-06
-3.96785e-07
3.51191e-06
-4.33864e-07
2.61947e-06
-4.6383e-07
1.77036e-06
-4.86222e-07
9.50575e-07
-5.00327e-07
1.40616e-07
-5.05027e-07
-6.78503e-07
-5.00196e-07
-1.522e-06
-4.88046e-07
-2.40076e-06
-4.7674e-07
-3.32557e-06
-4.78864e-07
-4.33537e-06
-5.01123e-07
-5.53084e-06
-5.04609e-07
-7.11772e-06
-4.21485e-07
-9.1686e-06
-1.12493e-05
1.73118e-07
6.05122e-06
2.6274e-07
7.00239e-06
3.2913e-07
6.84937e-06
3.5821e-07
6.23753e-06
3.7253e-07
5.37626e-06
3.7254e-07
4.44638e-06
3.62531e-07
3.52192e-06
3.46125e-07
2.63588e-06
3.24982e-07
1.7915e-06
2.99399e-07
9.76158e-07
2.68967e-07
1.71047e-07
2.33341e-07
-6.42877e-07
1.91676e-07
-1.48033e-06
1.42062e-07
-2.35114e-06
7.78115e-08
-3.26132e-06
-1.50307e-08
-4.24253e-06
-1.34596e-07
-5.41127e-06
-2.61304e-07
-6.99101e-06
-3.14367e-07
-9.11553e-06
-1.15637e-05
3.81645e-07
5.66958e-06
6.34211e-07
6.74982e-06
8.26042e-07
6.65754e-06
9.53177e-07
6.1104e-06
1.04096e-06
5.28847e-06
1.09614e-06
4.3912e-06
1.1256e-06
3.49246e-06
1.1346e-06
2.62688e-06
1.12562e-06
1.80048e-06
1.09882e-06
1.00297e-06
1.0525e-06
2.17363e-07
9.84805e-07
-5.7518e-07
8.93221e-07
-1.38875e-06
7.75666e-07
-2.23359e-06
6.28011e-07
-3.11366e-06
4.43408e-07
-4.05793e-06
2.07041e-07
-5.1749e-06
-6.28335e-08
-6.72114e-06
-1.78723e-07
-8.99964e-06
-1.17424e-05
5.82317e-07
5.08726e-06
9.94833e-07
6.3373e-06
1.30806e-06
6.34431e-06
1.53709e-06
5.88137e-06
1.7052e-06
5.12037e-06
1.82463e-06
4.27177e-06
1.90213e-06
3.41495e-06
1.94347e-06
2.58555e-06
1.95164e-06
1.7923e-06
1.92668e-06
1.02793e-06
1.86577e-06
2.78277e-07
1.76585e-06
-4.75264e-07
1.62291e-06
-1.24581e-06
1.43404e-06
-2.04471e-06
1.19677e-06
-2.8764e-06
9.06017e-07
-3.76717e-06
5.50497e-07
-4.81938e-06
1.90857e-07
-6.3615e-06
-1.73559e-08
-8.79143e-06
-1.17597e-05
7.53712e-07
4.33355e-06
1.31669e-06
5.77432e-06
1.74918e-06
5.91183e-06
2.09657e-06
5.53398e-06
2.36089e-06
4.85604e-06
2.55827e-06
4.0744e-06
2.69599e-06
3.27723e-06
2.77961e-06
2.50193e-06
2.81233e-06
1.75958e-06
2.79406e-06
1.0462e-06
2.72093e-06
3.514e-07
2.58848e-06
-3.42807e-07
2.39243e-06
-1.04976e-06
2.12829e-06
-1.78057e-06
1.79426e-06
-2.54238e-06
1.39285e-06
-3.36576e-06
9.23667e-07
-4.3502e-06
4.63419e-07
-5.90125e-06
1.42393e-07
-8.47041e-06
-1.16173e-05
8.98367e-07
3.43518e-06
1.58209e-06
5.0906e-06
2.13919e-06
5.35473e-06
2.61453e-06
5.05863e-06
2.99459e-06
4.47599e-06
3.28643e-06
3.78256e-06
3.49872e-06
3.06494e-06
3.63724e-06
2.36341e-06
3.70462e-06
1.69219e-06
3.7009e-06
1.04992e-06
3.62077e-06
4.31535e-07
3.45686e-06
-1.78897e-07
3.20801e-06
-8.0091e-07
2.86684e-06
-1.4394e-06
2.43133e-06
-2.10686e-06
1.91364e-06
-2.84807e-06
1.31877e-06
-3.75533e-06
7.32017e-07
-5.3145e-06
2.91316e-07
-8.0297e-06
-1.1326e-05
9.20386e-07
2.5148e-06
1.71691e-06
4.29407e-06
2.42269e-06
4.64895e-06
3.04741e-06
4.43391e-06
3.56864e-06
3.95476e-06
3.97919e-06
3.37201e-06
4.28564e-06
2.75849e-06
4.49521e-06
2.15384e-06
4.60985e-06
1.57755e-06
4.63059e-06
1.02919e-06
4.55434e-06
5.07781e-07
4.36402e-06
1.14283e-08
4.06876e-06
-5.05651e-07
3.65593e-06
-1.02657e-06
3.1221e-06
-1.57303e-06
2.48764e-06
-2.21361e-06
1.75726e-06
-3.02495e-06
1.03233e-06
-4.58957e-06
4.62392e-07
-7.45977e-06
-1.08636e-05
8.22613e-07
1.69218e-06
1.68673e-06
3.42995e-06
2.56536e-06
3.77033e-06
3.36329e-06
3.63597e-06
4.04322e-06
3.27483e-06
4.59423e-06
2.821e-06
5.01541e-06
2.33731e-06
5.31261e-06
1.85663e-06
5.48787e-06
1.4023e-06
5.54277e-06
9.74286e-07
5.47418e-06
5.76372e-07
5.29237e-06
1.93232e-07
4.96664e-06
-1.7992e-07
4.51108e-06
-5.71011e-07
3.908e-06
-9.69948e-07
3.1841e-06
-1.48971e-06
2.33219e-06
-2.17303e-06
1.46252e-06
-3.71991e-06
6.8323e-07
-6.68048e-06
-1.01804e-05
3.87851e-07
1.30433e-06
1.37967e-06
2.43814e-06
2.43626e-06
2.71374e-06
3.43069e-06
2.64154e-06
4.28995e-06
2.41558e-06
5.00244e-06
2.10851e-06
5.56392e-06
1.77583e-06
5.9749e-06
1.44565e-06
6.2409e-06
1.13629e-06
6.36743e-06
8.47757e-07
6.35707e-06
5.8673e-07
6.21692e-06
3.33383e-07
5.94154e-06
9.54623e-08
5.52506e-06
-1.54532e-07
4.9415e-06
-3.86389e-07
4.22979e-06
-7.7801e-07
3.33666e-06
-1.2799e-06
2.35831e-06
-2.74156e-06
1.16332e-06
-5.48548e-06
-9.01708e-06
-5.2175e-07
1.82608e-06
6.21055e-07
1.29533e-06
2.02383e-06
1.31096e-06
3.30223e-06
1.36315e-06
4.40482e-06
1.31298e-06
5.33519e-06
1.17815e-06
6.09332e-06
1.01771e-06
6.67801e-06
8.60964e-07
7.1025e-06
7.11803e-07
7.3745e-06
5.75759e-07
7.51058e-06
4.50646e-07
7.51175e-06
3.32208e-07
7.38352e-06
2.23697e-07
7.12217e-06
1.06821e-07
6.73066e-06
5.11425e-09
6.20187e-06
-2.49215e-07
5.4735e-06
-5.51527e-07
4.50444e-06
-1.7725e-06
2.51695e-06
-3.49799e-06
-6.50013e-06
1.82608e-06
3.12142e-06
4.43237e-06
5.79552e-06
7.1085e-06
8.28665e-06
9.30435e-06
1.01653e-05
1.08771e-05
1.14529e-05
1.19035e-05
1.22357e-05
1.24594e-05
1.25663e-05
1.25714e-05
1.23222e-05
1.17706e-05
9.99812e-06
6.50013e-06
)
;

boundaryField
{
    movingWall
    {
        type            calculated;
        value           uniform 0;
    }
    fixedWalls
    {
        type            calculated;
        value           uniform 0;
    }
    frontAndBack
    {
        type            empty;
        value           nonuniform 0();
    }
}


// ************************************************************************* //
