/*--------------------------------*- C++ -*----------------------------------*\
| =========                 |                                                 |
| \\      /  F ield         | OpenFOAM: The Open Source CFD Toolbox           |
|  \\    /   O peration     | Version:  5.x                                   |
|   \\  /    A nd           | Web:      www.OpenFOAM.org                      |
|    \\/     M anipulation  |                                                 |
\*---------------------------------------------------------------------------*/
FoamFile
{
    version     2.0;
    format      ascii;
    class       volVectorField;
    location    "14.5";
    object      U;
}
// * * * * * * * * * * * * * * * * * * * * * * * * * * * * * * * * * * * * * //

dimensions      [0 1 -1 0 0 0 0];

internalField   nonuniform List<vector> 
400
(
(0.0027635 -0.00359725 0)
(0.00179121 -0.000554358 0)
(-0.00603868 0.00488693 0)
(-0.028806 0.0111566 0)
(-0.0629185 0.0139376 0)
(-0.089199 0.0121575 0)
(-0.11289 0.0103907 0)
(-0.130631 0.00802158 0)
(-0.144817 0.00589478 0)
(-0.1543 0.00353799 0)
(-0.159725 0.00156799 0)
(-0.161645 -0.000563997 0)
(-0.159308 -0.00398097 0)
(-0.151867 -0.0062442 0)
(-0.139435 -0.00962746 0)
(-0.120883 -0.0124069 0)
(-0.0967721 -0.0156336 0)
(-0.067642 -0.0169815 0)
(-0.0364747 -0.0144876 0)
(-0.00896806 -0.00245826 0)
(-0.00251336 -0.00132552 0)
(-0.0137912 0.0132994 0)
(-0.0398956 0.0314451 0)
(-0.0690902 0.0399613 0)
(-0.0937836 0.0389507 0)
(-0.113993 0.0349579 0)
(-0.131136 0.0295092 0)
(-0.143891 0.0236789 0)
(-0.154441 0.0170778 0)
(-0.161585 0.0109141 0)
(-0.165589 0.00495472 0)
(-0.165993 -0.00101103 0)
(-0.162743 -0.00749884 0)
(-0.155763 -0.0146194 0)
(-0.144514 -0.0230976 0)
(-0.12833 -0.0326877 0)
(-0.107236 -0.0433073 0)
(-0.0812423 -0.0522489 0)
(-0.0504739 -0.0531757 0)
(-0.0183727 -0.0324018 0)
(-0.00914643 0.015527 0)
(-0.03247 0.0411678 0)
(-0.0589522 0.0566567 0)
(-0.081887 0.0608039 0)
(-0.100053 0.0572579 0)
(-0.11505 0.0501767 0)
(-0.127101 0.0413372 0)
(-0.1363 0.0319068 0)
(-0.142846 0.023142 0)
(-0.146158 0.0144156 0)
(-0.147404 0.00566914 0)
(-0.146293 -0.00319018 0)
(-0.143125 -0.012365 0)
(-0.1369 -0.0223362 0)
(-0.127729 -0.0337075 0)
(-0.11487 -0.0468747 0)
(-0.0979815 -0.0620945 0)
(-0.0768234 -0.0781696 0)
(-0.0501707 -0.0886398 0)
(-0.0211678 -0.0750017 0)
(-0.0132222 0.0392898 0)
(-0.0381484 0.0647626 0)
(-0.06119 0.0769804 0)
(-0.0789757 0.078 0)
(-0.092559 0.0719234 0)
(-0.103353 0.0623709 0)
(-0.111367 0.0510778 0)
(-0.117174 0.0393036 0)
(-0.120939 0.0277983 0)
(-0.122935 0.0165659 0)
(-0.123284 0.00568633 0)
(-0.121867 -0.00524311 0)
(-0.118624 -0.0166019 0)
(-0.113338 -0.0289487 0)
(-0.105971 -0.0428741 0)
(-0.0961257 -0.0589279 0)
(-0.083107 -0.077321 0)
(-0.0662085 -0.0972832 0)
(-0.0438453 -0.114171 0)
(-0.01949 -0.109651 0)
(-0.0134488 0.0616701 0)
(-0.0361036 0.0859555 0)
(-0.05477 0.094425 0)
(-0.0687551 0.092119 0)
(-0.0791496 0.0831673 0)
(-0.0869655 0.0710015 0)
(-0.0924697 0.0573827 0)
(-0.0963623 0.0436217 0)
(-0.0987788 0.0303443 0)
(-0.0998504 0.017562 0)
(-0.0995688 0.00513387 0)
(-0.0979146 -0.0073194 0)
(-0.0948516 -0.020204 0)
(-0.0903492 -0.0341373 0)
(-0.0844193 -0.0498136 0)
(-0.0769495 -0.0680057 0)
(-0.0673007 -0.0892892 0)
(-0.0542816 -0.113326 0)
(-0.0359215 -0.13624 0)
(-0.0170184 -0.139035 0)
(-0.0114962 0.0824362 0)
(-0.030162 0.104481 0)
(-0.044838 0.109174 0)
(-0.0558464 0.10342 0)
(-0.0637503 0.0915642 0)
(-0.0694982 0.0770021 0)
(-0.0734926 0.0615433 0)
(-0.0763003 0.0463635 0)
(-0.0779577 0.0318368 0)
(-0.0785438 0.0178489 0)
(-0.078062 0.00418621 0)
(-0.0764903 -0.00948528 0)
(-0.0738013 -0.0235707 0)
(-0.0700171 -0.0386328 0)
(-0.0652184 -0.055383 0)
(-0.0594521 -0.0747239 0)
(-0.0524339 -0.0976336 0)
(-0.0430162 -0.124562 0)
(-0.0305521 -0.153345 0)
(-0.0109952 -0.163056 0)
(-0.00941861 0.0998997 0)
(-0.0228882 0.11947 0)
(-0.0341037 0.12097 0)
(-0.0423864 0.112135 0)
(-0.0482295 0.0978428 0)
(-0.052483 0.0814082 0)
(-0.0554853 0.064593 0)
(-0.0576138 0.0483455 0)
(-0.0588794 0.0328397 0)
(-0.0593419 0.0179039 0)
(-0.0589797 0.00327193 0)
(-0.0577476 -0.0114039 0)
(-0.0555992 -0.0265051 0)
(-0.0525668 -0.0425001 0)
(-0.0487685 -0.0600462 0)
(-0.0443332 -0.0801167 0)
(-0.0392473 -0.103948 0)
(-0.0324479 -0.132968 0)
(-0.0249202 -0.165891 0)
(-0.00833544 -0.183223 0)
(-0.00649446 0.113163 0)
(-0.0154238 0.130791 0)
(-0.0235444 0.129762 0)
(-0.0292887 0.118588 0)
(-0.0333651 0.102526 0)
(-0.0364105 0.0847521 0)
(-0.038651 0.0669486 0)
(-0.0403029 0.0498997 0)
(-0.0413581 0.0336712 0)
(-0.0418466 0.0180347 0)
(-0.0417291 0.00266361 0)
(-0.0409447 -0.0128027 0)
(-0.0394407 -0.0287163 0)
(-0.0372492 -0.0454522 0)
(-0.034505 -0.0635516 0)
(-0.0313885 -0.083991 0)
(-0.0280448 -0.108262 0)
(-0.0235448 -0.13862 0)
(-0.0203153 -0.174589 0)
(-0.00446667 -0.199121 0)
(-0.00411549 0.121412 0)
(-0.00845498 0.138035 0)
(-0.0134833 0.135414 0)
(-0.0168413 0.122903 0)
(-0.0193056 0.105756 0)
(-0.0212666 0.0871563 0)
(-0.0228132 0.0687247 0)
(-0.0240373 0.0511455 0)
(-0.0249086 0.0344352 0)
(-0.0254297 0.0183198 0)
(-0.025561 0.0024292 0)
(-0.0252472 -0.0136089 0)
(-0.024445 -0.030119 0)
(-0.0231757 -0.0473968 0)
(-0.0215833 -0.0658419 0)
(-0.0198766 -0.0863832 0)
(-0.0183418 -0.110794 0)
(-0.0157324 -0.141983 0)
(-0.0165539 -0.180247 0)
(-0.00229215 -0.211935 0)
(-0.000781021 0.125177 0)
(-0.00182467 0.14201 0)
(-0.00399336 0.138402 0)
(-0.00501414 0.125247 0)
(-0.00592837 0.107647 0)
(-0.00680713 0.0886768 0)
(-0.00762475 0.0699424 0)
(-0.00838241 0.0520873 0)
(-0.00902427 0.0351165 0)
(-0.0095338 0.0187383 0)
(-0.00988267 0.00255945 0)
(-0.0100382 -0.0138011 0)
(-0.00998242 -0.0306501 0)
(-0.00972994 -0.0482184 0)
(-0.00941191 -0.0667733 0)
(-0.00923453 -0.0871494 0)
(-0.00975766 -0.111362 0)
(-0.00871792 -0.142939 0)
(-0.0134742 -0.182932 0)
(0.000601552 -0.221493 0)
(0.00165575 0.123821 0)
(0.00423709 0.142071 0)
(0.00527857 0.138394 0)
(0.00641978 0.125491 0)
(0.00703099 0.108007 0)
(0.00729027 0.0891676 0)
(0.00727647 0.070499 0)
(0.00706051 0.0526483 0)
(0.00671534 0.0356555 0)
(0.00626838 0.0192466 0)
(0.00573375 0.00303227 0)
(0.00511564 -0.013371 0)
(0.00439745 -0.0302584 0)
(0.0035649 -0.0478295 0)
(0.00247966 -0.066242 0)
(0.00101019 -0.0862045 0)
(-0.00174625 -0.109909 0)
(-0.00215825 -0.141484 0)
(-0.0110363 -0.183436 0)
(0.00284456 -0.228443 0)
(0.00375 0.11923 0)
(0.0102808 0.138938 0)
(0.0138981 0.136181 0)
(0.0173767 0.12431 0)
(0.0197106 0.107198 0)
(0.0212473 0.0887697 0)
(0.0221803 0.0704194 0)
(0.0226211 0.0528101 0)
(0.0226592 0.0360237 0)
(0.022331 0.0198236 0)
(0.0216378 0.00384311 0)
(0.0205601 -0.0122975 0)
(0.0190394 -0.0288934 0)
(0.0170679 -0.0461371 0)
(0.0144623 -0.0641163 0)
(0.0111997 -0.0834256 0)
(0.0062044 -0.106291 0)
(0.00423413 -0.137538 0)
(-0.0089056 -0.181674 0)
(0.00615409 -0.232626 0)
(0.00609707 0.110063 0)
(0.0158236 0.132256 0)
(0.022524 0.130723 0)
(0.0279757 0.120572 0)
(0.0322346 0.104557 0)
(0.0352092 0.0869964 0)
(0.0372617 0.069366 0)
(0.0385168 0.0523473 0)
(0.0390621 0.036085 0)
(0.0389372 0.0204004 0)
(0.0381296 0.00497279 0)
(0.0366073 -0.0105567 0)
(0.0342583 -0.0264775 0)
(0.0310921 -0.0430078 0)
(0.0268203 -0.0602121 0)
(0.0217071 -0.0786208 0)
(0.0144535 -0.100361 0)
(0.0104795 -0.131299 0)
(-0.00682007 -0.178066 0)
(0.00993487 -0.234812 0)
(0.00800166 0.0970281 0)
(0.0208722 0.123246 0)
(0.0303007 0.12402 0)
(0.0380351 0.1153 0)
(0.0443824 0.100717 0)
(0.0491045 0.0842277 0)
(0.0525525 0.0675347 0)
(0.0548551 0.0513502 0)
(0.0560872 0.0358729 0)
(0.0562931 0.0209881 0)
(0.0554428 0.00643396 0)
(0.0535041 -0.0081234 0)
(0.0502944 -0.0229662 0)
(0.0458952 -0.0383541 0)
(0.0398273 -0.0543954 0)
(0.0327977 -0.0716254 0)
(0.0230074 -0.0921114 0)
(0.0169626 -0.123147 0)
(-0.00426099 -0.173009 0)
(0.0148572 -0.235329 0)
(0.00986254 0.0804624 0)
(0.025147 0.109981 0)
(0.0370715 0.113429 0)
(0.0472015 0.106589 0)
(0.0558473 0.0939926 0)
(0.0626807 0.0791778 0)
(0.0678558 0.0639583 0)
(0.0714948 0.04912 0)
(0.0736462 0.0349129 0)
(0.0743681 0.0212849 0)
(0.0735999 0.00805029 0)
(0.0713184 -0.00508544 0)
(0.0672438 -0.0183694 0)
(0.0616266 -0.0321218 0)
(0.0536606 -0.0465224 0)
(0.0446516 -0.0622955 0)
(0.0320091 -0.081424 0)
(0.0239665 -0.112768 0)
(-0.00170786 -0.166311 0)
(0.0204471 -0.235207 0)
(0.0100822 0.0607924 0)
(0.027663 0.0958134 0)
(0.0417051 0.102208 0)
(0.0543432 0.097024 0)
(0.0657616 0.086231 0)
(0.0752675 0.07319 0)
(0.0826449 0.0595906 0)
(0.0879824 0.0462868 0)
(0.0913425 0.0335969 0)
(0.0928145 0.0215042 0)
(0.0923149 0.00992474 0)
(0.0898542 -0.00149808 0)
(0.0850016 -0.0127625 0)
(0.0783279 -0.0243825 0)
(0.068481 -0.0366125 0)
(0.0576169 -0.0505792 0)
(0.0419452 -0.0680801 0)
(0.0319792 -0.0999289 0)
(0.000794447 -0.157977 0)
(0.0273777 -0.232176 0)
(0.00929296 0.0411071 0)
(0.026933 0.0760793 0)
(0.0432026 0.0844866 0)
(0.0588171 0.0814687 0)
(0.0734002 0.0731278 0)
(0.0860486 0.0627155 0)
(0.0960846 0.0516609 0)
(0.103502 0.0407412 0)
(0.108342 0.0303815 0)
(0.110829 0.0205676 0)
(0.110708 0.0113116 0)
(0.108432 0.00225679 0)
(0.103193 -0.00650659 0)
(0.0960496 -0.0155589 0)
(0.0847689 -0.02504 0)
(0.0727729 -0.0367337 0)
(0.0542711 -0.05204 0)
(0.0423539 -0.0845096 0)
(0.00512153 -0.146153 0)
(0.0368664 -0.221387 0)
(-0.000298653 0.0252703 0)
(0.0200663 0.0606927 0)
(0.038586 0.0686423 0)
(0.057913 0.0668137 0)
(0.0764087 0.0604904 0)
(0.0924989 0.0524739 0)
(0.105609 0.0438784 0)
(0.115632 0.0352828 0)
(0.122478 0.0271959 0)
(0.126684 0.0196426 0)
(0.127732 0.0127335 0)
(0.126621 0.00618402 0)
(0.121976 7.81276e-05 0)
(0.115974 -0.00633282 0)
(0.104767 -0.0127709 0)
(0.0937218 -0.0216397 0)
(0.0734246 -0.0340398 0)
(0.0607913 -0.0654822 0)
(0.0184407 -0.126245 0)
(0.0536348 -0.192958 0)
(-0.0136146 0.0290484 0)
(-0.000401931 0.0307586 0)
(0.0266447 0.0345161 0)
(0.0528444 0.035576 0)
(0.0764062 0.0338064 0)
(0.0970236 0.0299458 0)
(0.114097 0.0254999 0)
(0.127923 0.021011 0)
(0.138038 0.0167675 0)
(0.145394 0.0127502 0)
(0.149239 0.00919233 0)
(0.15105 0.0056297 0)
(0.149192 0.00264687 0)
(0.146093 -0.00118894 0)
(0.137772 -0.00430103 0)
(0.130385 -0.0105036 0)
(0.11198 -0.0186731 0)
(0.102525 -0.0451948 0)
(0.059828 -0.0914587 0)
(0.0870534 -0.139243 0)
(0.0428711 0.0379033 0)
(0.048447 0.0295329 0)
(0.070415 0.0270226 0)
(0.100771 0.0268295 0)
(0.127836 0.0258823 0)
(0.152827 0.0238964 0)
(0.174669 0.0213161 0)
(0.194175 0.0188262 0)
(0.209972 0.0163692 0)
(0.223606 0.0142609 0)
(0.2336 0.0122059 0)
(0.241992 0.0105168 0)
(0.246968 0.00870928 0)
(0.250728 0.00722385 0)
(0.251066 0.00525323 0)
(0.248194 0.00243938 0)
(0.238514 0.00248371 0)
(0.223386 -0.00895445 0)
(0.174907 -0.0122877 0)
(0.158733 -0.0592345 0)
)
;

boundaryField
{
    movingWall
    {
        type            fixedValue;
        value           uniform (1 0 0);
    }
    fixedWalls
    {
        type            noSlip;
    }
    frontAndBack
    {
        type            empty;
    }
}


// ************************************************************************* //
