/*--------------------------------*- C++ -*----------------------------------*\
| =========                 |                                                 |
| \\      /  F ield         | OpenFOAM: The Open Source CFD Toolbox           |
|  \\    /   O peration     | Version:  5.x                                   |
|   \\  /    A nd           | Web:      www.OpenFOAM.org                      |
|    \\/     M anipulation  |                                                 |
\*---------------------------------------------------------------------------*/
FoamFile
{
    version     2.0;
    format      ascii;
    class       volScalarField;
    location    "12";
    object      epsilon;
}
// * * * * * * * * * * * * * * * * * * * * * * * * * * * * * * * * * * * * * //

dimensions      [0 2 -3 0 0 0 0];

internalField   nonuniform List<scalar> 
400
(
3.05056e-05
9.10064e-05
0.000332737
0.000653714
0.000873187
0.00104238
0.0011778
0.0013081
0.00142141
0.00153738
0.00164528
0.00175944
0.00186913
0.0019358
0.0019639
0.0019518
0.00178466
0.00136173
0.000827268
0.000575696
0.000128971
0.000332194
0.000816551
0.00107797
0.00113243
0.00115389
0.00115909
0.00119807
0.00124298
0.00132989
0.00144029
0.00158794
0.00176254
0.0019675
0.00218677
0.00238139
0.00246556
0.00241921
0.00188236
0.00121637
0.000401348
0.000938611
0.00113674
0.00115854
0.00111757
0.00109761
0.0010814
0.0011008
0.00115888
0.00123238
0.00132386
0.00143127
0.00156035
0.00171825
0.0019077
0.0021266
0.00229236
0.002351
0.00213207
0.00160093
0.000837869
0.00121228
0.00121837
0.00112081
0.00103757
0.00098677
0.000971142
0.000972095
0.000998731
0.00102952
0.0010782
0.00114943
0.00125628
0.00140866
0.00162315
0.0019025
0.00218936
0.00231565
0.00224775
0.00184854
0.00114284
0.0013624
0.0011906
0.0010272
0.000912894
0.000852897
0.000813633
0.000785271
0.00076856
0.000761795
0.000771051
0.00081822
0.000910209
0.00106685
0.00131328
0.00166909
0.00211649
0.00236564
0.00239677
0.00203255
0.00130718
0.00135734
0.00111717
0.000911475
0.000794724
0.000719136
0.000653226
0.000593006
0.00054106
0.000511141
0.000500919
0.000520992
0.000599575
0.000748348
0.00100855
0.0014242
0.00201178
0.00247792
0.00259485
0.00218125
0.00133199
0.00131068
0.00101358
0.000809642
0.000690902
0.000600472
0.000514497
0.000434144
0.000366274
0.000324646
0.000307974
0.000308932
0.000366906
0.00049157
0.000734275
0.00117256
0.00187872
0.0026031
0.002828
0.00230027
0.00131276
0.00121073
0.000917317
0.000724789
0.000606554
0.000507109
0.000410765
0.000323452
0.00025391
0.000211443
0.000193139
0.000190509
0.000226759
0.000317927
0.000519912
0.000936055
0.00170297
0.00271597
0.0031257
0.00239959
0.00126364
0.00109705
0.000833334
0.0006584
0.000543239
0.00044072
0.000342244
0.000256167
0.000191091
0.000153175
0.000137334
0.000135321
0.000159635
0.000223401
0.000377587
0.000748397
0.00153455
0.00278293
0.00341838
0.00247333
0.0011719
0.000996041
0.000764594
0.000607801
0.000498465
0.000398499
0.000302601
0.000220811
0.000161857
0.00012808
0.000114239
0.000113961
0.000131894
0.000179584
0.000297949
0.00061235
0.00139598
0.00282583
0.00373474
0.00253412
0.0010741
0.00091295
0.000710904
0.000572584
0.000470304
0.000374431
0.000285081
0.000211535
0.000158131
0.000125385
0.000109588
0.000109588
0.000123917
0.000163445
0.000261703
0.000531481
0.0012753
0.00286679
0.00402303
0.00257202
0.00098551
0.000856446
0.000674177
0.000548522
0.000453453
0.000367759
0.000286711
0.000216651
0.000165209
0.000133057
0.000117199
0.000117409
0.0001279
0.00016112
0.000250479
0.000495706
0.00120362
0.00292081
0.00428779
0.00259948
0.000893961
0.000817841
0.000654458
0.000541473
0.000454278
0.000372263
0.000296017
0.000231392
0.000183407
0.000152274
0.000135708
0.000136218
0.000146159
0.000176918
0.000256888
0.000485638
0.00117469
0.00299045
0.0044742
0.00261266
0.000803757
0.000796311
0.000662944
0.000549232
0.00046404
0.000386476
0.00031712
0.00025902
0.00021419
0.000183913
0.000165707
0.000166161
0.000176086
0.000207408
0.000288211
0.000509416
0.00117301
0.0030949
0.00457
0.00262015
0.000707786
0.000772332
0.000682357
0.000573019
0.000489819
0.0004159
0.000350489
0.000296159
0.00025404
0.000225415
0.000206772
0.000207597
0.000218641
0.000253079
0.000340484
0.00057362
0.00124519
0.00325727
0.00460513
0.0025575
0.000600679
0.000762224
0.000724136
0.000632514
0.000548975
0.000475937
0.000410346
0.000355272
0.000311798
0.000282363
0.000262515
0.000264126
0.000278079
0.000320145
0.000424109
0.000691035
0.00139422
0.00346255
0.00444908
0.00245232
0.000493699
0.000723157
0.000743786
0.000711909
0.000647357
0.000577286
0.00050928
0.000449749
0.000402235
0.00036863
0.000350132
0.00035471
0.000377137
0.00043979
0.000586224
0.00094276
0.00173608
0.00372809
0.0041303
0.00231334
0.000334024
0.000634784
0.000819219
0.000882685
0.000865722
0.000810832
0.000734875
0.000664811
0.000611632
0.00057259
0.000572808
0.000593899
0.000652659
0.000792689
0.00107961
0.00171804
0.00270198
0.00411928
0.00398347
0.00214593
0.000339829
0.000627779
0.00101782
0.00122955
0.0013075
0.00130672
0.00128782
0.00126836
0.0012807
0.00132694
0.00142744
0.00162926
0.00190923
0.00237165
0.00297221
0.00391043
0.00476229
0.00468063
0.00406524
0.00190717
0.000246895
0.000376391
0.000661585
0.000943189
0.00115817
0.00130269
0.00138505
0.00143642
0.00146161
0.00147906
0.00148654
0.00149859
0.00150829
0.00153233
0.00154858
0.00160677
0.00167865
0.00176898
0.00175121
0.0015592
)
;

boundaryField
{
    movingWall
    {
        Cmu             0.09;
        kappa           0.41;
        E               9.8;
        type            epsilonWallFunction;
        value           nonuniform List<scalar> 
20
(
0.000246895
0.000376391
0.000661585
0.000943189
0.00115817
0.00130269
0.00138505
0.00143642
0.00146161
0.00147906
0.00148654
0.00149859
0.00150829
0.00153233
0.00154858
0.00160677
0.00167865
0.00176898
0.00175121
0.0015592
)
;
    }
    fixedWalls
    {
        Cmu             0.09;
        kappa           0.41;
        E               9.8;
        type            epsilonWallFunction;
        value           nonuniform List<scalar> 
60
(
3.05056e-05
0.000128971
0.000401348
0.000837869
0.00114284
0.00130718
0.00133199
0.00131276
0.00126364
0.0011719
0.0010741
0.00098551
0.000893961
0.000803757
0.000707786
0.000600679
0.000493699
0.000334024
0.000339829
0.000246895
0.000575696
0.00121637
0.00160093
0.00184854
0.00203255
0.00218125
0.00230027
0.00239959
0.00247333
0.00253412
0.00257202
0.00259948
0.00261266
0.00262015
0.0025575
0.00245232
0.00231334
0.00214593
0.00190717
0.0015592
3.05056e-05
9.10064e-05
0.000332737
0.000653714
0.000873187
0.00104238
0.0011778
0.0013081
0.00142141
0.00153738
0.00164528
0.00175944
0.00186913
0.0019358
0.0019639
0.0019518
0.00178466
0.00136173
0.000827268
0.000575696
)
;
    }
    frontAndBack
    {
        type            empty;
    }
}


// ************************************************************************* //
