/*--------------------------------*- C++ -*----------------------------------*\
| =========                 |                                                 |
| \\      /  F ield         | OpenFOAM: The Open Source CFD Toolbox           |
|  \\    /   O peration     | Version:  5.x                                   |
|   \\  /    A nd           | Web:      www.OpenFOAM.org                      |
|    \\/     M anipulation  |                                                 |
\*---------------------------------------------------------------------------*/
FoamFile
{
    version     2.0;
    format      ascii;
    class       volScalarField;
    location    "12";
    object      k;
}
// * * * * * * * * * * * * * * * * * * * * * * * * * * * * * * * * * * * * * //

dimensions      [0 2 -2 0 0 0 0];

internalField   nonuniform List<scalar> 
400
(
9.52199e-06
2.83663e-05
0.000103889
0.000204323
0.000272965
0.000325859
0.000368199
0.000408926
0.00044435
0.000480597
0.000514328
0.000550007
0.000584293
0.00060513
0.000613909
0.000610119
0.000557874
0.000425672
0.000258609
0.000179965
4.02532e-05
0.000130964
0.00026792
0.000422772
0.000489366
0.000568053
0.000613472
0.000679596
0.000733812
0.000798315
0.000859665
0.000924046
0.000981569
0.00104448
0.0010936
0.00111596
0.00111708
0.000973985
0.00063786
0.000380253
0.000125316
0.000397763
0.000542546
0.000626648
0.000676504
0.000726231
0.000761027
0.000810317
0.000852693
0.000903219
0.000949721
0.000997492
0.00104387
0.00109488
0.00114196
0.00117064
0.00117946
0.00110913
0.00078909
0.000500469
0.000261711
0.000603042
0.000681923
0.000717103
0.000740443
0.000761413
0.000784441
0.00081601
0.000845708
0.000877291
0.000905531
0.000941211
0.000987448
0.00104598
0.00111577
0.00117657
0.00120171
0.00118866
0.000934094
0.000577879
0.000357087
0.000715388
0.000738873
0.000737746
0.00074035
0.000753692
0.000765591
0.000771895
0.000770779
0.000767448
0.000772387
0.00079914
0.000847812
0.00092379
0.00103058
0.00115883
0.00123477
0.00125095
0.00105703
0.000635408
0.000408498
0.000750931
0.000748961
0.000733629
0.000728498
0.000724761
0.000704896
0.000671062
0.000638174
0.000619807
0.000613764
0.00062824
0.000677556
0.000764812
0.000901333
0.00108731
0.00125712
0.00131733
0.00118311
0.0006819
0.000416282
0.000744067
0.000742418
0.000719187
0.000698211
0.000667083
0.000621135
0.0005664
0.000518078
0.000488024
0.000476193
0.000479925
0.000523831
0.000610463
0.000758707
0.000984963
0.00126212
0.00139064
0.00130179
0.000719114
0.000410275
0.000724836
0.000724864
0.000691106
0.000658855
0.000611744
0.000549717
0.000483868
0.000428584
0.000393624
0.000379104
0.000378253
0.000413104
0.000490019
0.000631373
0.000871499
0.00122127
0.00145665
0.00143219
0.000750168
0.000394929
0.000686529
0.000693856
0.000661412
0.000623369
0.000567672
0.000498131
0.000428579
0.000372397
0.000337283
0.000322559
0.000321449
0.000348254
0.000411167
0.000537315
0.000771456
0.0011561
0.00151717
0.00154538
0.000773228
0.000366251
0.000651434
0.000663132
0.000634712
0.00059553
0.000537227
0.000466474
0.000397643
0.000343834
0.000310078
0.000295663
0.000296245
0.000318368
0.000371157
0.000478842
0.000695029
0.00108965
0.00156606
0.00166008
0.000792238
0.000335675
0.000608506
0.000630707
0.000610639
0.000574075
0.000518612
0.000451077
0.0003879
0.000337805
0.000304672
0.000288358
0.000289528
0.000308467
0.000354769
0.000451221
0.000649523
0.00103722
0.00160119
0.00175605
0.000804089
0.00030798
0.000570049
0.000604732
0.00059319
0.000560901
0.000510205
0.000451357
0.000391736
0.000343689
0.00031135
0.000295065
0.000296055
0.000310574
0.000351649
0.000442181
0.000629252
0.00100668
0.00163254
0.00183969
0.000812685
0.000279354
0.000523804
0.000577289
0.000575177
0.000553968
0.000511252
0.000457181
0.00040361
0.000359738
0.000329233
0.000313458
0.000315062
0.000328815
0.000366725
0.000449422
0.000624727
0.000993568
0.00166153
0.00188107
0.000816794
0.000251151
0.000489765
0.000560976
0.00056412
0.000552624
0.000518467
0.000471477
0.000425866
0.00038705
0.000358871
0.000343485
0.000345473
0.000359244
0.000396656
0.000477519
0.000645037
0.000992312
0.00169266
0.0018962
0.000819123
0.00022114
0.000443813
0.000537487
0.000560231
0.000555593
0.00053464
0.000495155
0.000455777
0.00042214
0.000397211
0.000383405
0.000385972
0.000400297
0.000438219
0.000519042
0.000685471
0.00101958
0.00172361
0.00189291
0.000799543
0.000187653
0.000409703
0.000524715
0.000564932
0.000568242
0.000559031
0.00053408
0.000500265
0.00046981
0.000446502
0.000432828
0.000435686
0.000450719
0.000490216
0.000573646
0.000748467
0.0010672
0.00173886
0.00180347
0.000766666
0.000154202
0.000356015
0.000493808
0.000574401
0.000599138
0.000596777
0.000583316
0.000555559
0.000527849
0.000505559
0.000493398
0.000497616
0.000515617
0.000561193
0.000654192
0.000854573
0.00117142
0.00174288
0.00167597
0.000723359
0.000104351
0.000296862
0.000500243
0.00061966
0.000691891
0.000698753
0.000690646
0.000669196
0.000638924
0.000614189
0.000610011
0.00062042
0.000650955
0.000723563
0.000850212
0.00112111
0.00144548
0.00174232
0.00153131
0.000671258
0.000106204
0.000309831
0.000533287
0.000672115
0.000754003
0.000793079
0.000810318
0.000826019
0.000844494
0.000876249
0.000924119
0.00100509
0.00111031
0.00127846
0.0014721
0.00177761
0.00191807
0.00181407
0.00143892
0.000597428
7.71636e-05
0.000117633
0.000206752
0.000294761
0.000361951
0.000407117
0.000432859
0.000448914
0.000456785
0.000462255
0.000464582
0.000468342
0.000471837
0.000478369
0.000485385
0.000501589
0.000524545
0.000553068
0.000547487
0.000487484
)
;

boundaryField
{
    movingWall
    {
        type            kqRWallFunction;
        value           nonuniform List<scalar> 
20
(
7.71636e-05
0.000117633
0.000206752
0.000294761
0.000361951
0.000407117
0.000432859
0.000448914
0.000456785
0.000462255
0.000464582
0.000468342
0.000471837
0.000478369
0.000485385
0.000501589
0.000524545
0.000553068
0.000547487
0.000487484
)
;
    }
    fixedWalls
    {
        type            kqRWallFunction;
        value           nonuniform List<scalar> 
60
(
9.52199e-06
4.02532e-05
0.000125316
0.000261711
0.000357087
0.000408498
0.000416282
0.000410275
0.000394929
0.000366251
0.000335675
0.00030798
0.000279354
0.000251151
0.00022114
0.000187653
0.000154202
0.000104351
0.000106204
7.71636e-05
0.000179965
0.000380253
0.000500469
0.000577879
0.000635408
0.0006819
0.000719114
0.000750168
0.000773228
0.000792238
0.000804089
0.000812685
0.000816794
0.000819123
0.000799543
0.000766666
0.000723359
0.000671258
0.000597428
0.000487484
9.52199e-06
2.83663e-05
0.000103889
0.000204323
0.000272965
0.000325859
0.000368199
0.000408926
0.00044435
0.000480597
0.000514328
0.000550007
0.000584293
0.00060513
0.000613909
0.000610119
0.000557874
0.000425672
0.000258609
0.000179965
)
;
    }
    frontAndBack
    {
        type            empty;
    }
}


// ************************************************************************* //
