/*--------------------------------*- C++ -*----------------------------------*\
| =========                 |                                                 |
| \\      /  F ield         | OpenFOAM: The Open Source CFD Toolbox           |
|  \\    /   O peration     | Version:  5.x                                   |
|   \\  /    A nd           | Web:      www.OpenFOAM.org                      |
|    \\/     M anipulation  |                                                 |
\*---------------------------------------------------------------------------*/
FoamFile
{
    version     2.0;
    format      ascii;
    class       volScalarField;
    location    "12";
    object      nut;
}
// * * * * * * * * * * * * * * * * * * * * * * * * * * * * * * * * * * * * * //

dimensions      [0 2 -1 0 0 0 0];

internalField   nonuniform List<scalar> 
400
(
2.67497e-07
7.95746e-07
2.91929e-06
5.74765e-06
7.67977e-06
9.16804e-06
1.03594e-05
1.15051e-05
1.25018e-05
1.35214e-05
1.44704e-05
1.54741e-05
1.64386e-05
1.70247e-05
1.72716e-05
1.71647e-05
1.56949e-05
1.19757e-05
7.27587e-06
5.06319e-06
1.13071e-06
4.64681e-06
7.91169e-06
1.49228e-05
1.90327e-05
2.51685e-05
2.92222e-05
3.46947e-05
3.89895e-05
4.31295e-05
4.61796e-05
4.83943e-05
4.91976e-05
4.99029e-05
4.92217e-05
4.70657e-05
4.5551e-05
3.52918e-05
1.94531e-05
1.06984e-05
3.52158e-06
1.51707e-05
2.33054e-05
3.05055e-05
3.68561e-05
4.32458e-05
4.8201e-05
5.36839e-05
5.64664e-05
5.95779e-05
6.13188e-05
6.2566e-05
6.28511e-05
6.27892e-05
6.15224e-05
5.79969e-05
5.46164e-05
4.70929e-05
2.62841e-05
1.40807e-05
7.35716e-06
2.69981e-05
3.43506e-05
4.12926e-05
4.75565e-05
5.28771e-05
5.7027e-05
6.16489e-05
6.44518e-05
6.72818e-05
6.84465e-05
6.93639e-05
6.98531e-05
6.99009e-05
6.90296e-05
6.5487e-05
5.93636e-05
5.49147e-05
3.49362e-05
1.62587e-05
1.00416e-05
3.38081e-05
4.12684e-05
4.76871e-05
5.40377e-05
5.99424e-05
6.48348e-05
6.82872e-05
6.95703e-05
6.95829e-05
6.96353e-05
7.02454e-05
7.10723e-05
7.19921e-05
7.27863e-05
7.24111e-05
6.48329e-05
5.95355e-05
4.19558e-05
1.78775e-05
1.14891e-05
3.739e-05
4.519e-05
5.31435e-05
6.01011e-05
6.57387e-05
6.84587e-05
6.83452e-05
6.77447e-05
6.76418e-05
6.76827e-05
6.81809e-05
6.89112e-05
7.03474e-05
7.24963e-05
7.47103e-05
7.06997e-05
6.30294e-05
4.85487e-05
1.91857e-05
1.1709e-05
3.80162e-05
4.89418e-05
5.74954e-05
6.35038e-05
6.66974e-05
6.74888e-05
6.65051e-05
6.59519e-05
6.60259e-05
6.62667e-05
6.71006e-05
6.73085e-05
6.82301e-05
7.05558e-05
7.44642e-05
7.63101e-05
6.68622e-05
5.39316e-05
2.02329e-05
1.15401e-05
3.90548e-05
5.15509e-05
5.93089e-05
6.44099e-05
6.64173e-05
6.62106e-05
6.5146e-05
6.51079e-05
6.59496e-05
6.69714e-05
6.75914e-05
6.77324e-05
6.79736e-05
6.90056e-05
7.30256e-05
7.88239e-05
7.03117e-05
5.90605e-05
2.11069e-05
1.11086e-05
3.86665e-05
5.19952e-05
5.97995e-05
6.43786e-05
6.58075e-05
6.52519e-05
6.45329e-05
6.53153e-05
6.6841e-05
6.8184e-05
6.8723e-05
6.83767e-05
6.81075e-05
6.88152e-05
7.15702e-05
7.83879e-05
7.44402e-05
6.28772e-05
2.17558e-05
1.03017e-05
3.83448e-05
5.17621e-05
5.96533e-05
6.40347e-05
6.51824e-05
6.47181e-05
6.44479e-05
6.57368e-05
6.75623e-05
6.88685e-05
6.93084e-05
6.91635e-05
6.90381e-05
6.92604e-05
7.09986e-05
7.65483e-05
7.81115e-05
6.64107e-05
2.22909e-05
9.44142e-06
3.65027e-05
5.03602e-05
5.861e-05
6.30668e-05
6.46482e-05
6.42357e-05
6.40177e-05
6.49467e-05
6.6629e-05
6.82883e-05
6.88431e-05
6.91084e-05
6.93045e-05
7.00183e-05
7.14404e-05
7.59231e-05
8.0488e-05
6.89859e-05
2.26244e-05
8.66214e-06
3.41481e-05
4.88197e-05
5.77346e-05
6.24428e-05
6.37042e-05
6.39496e-05
6.37482e-05
6.43487e-05
6.55696e-05
6.68582e-05
6.71874e-05
6.78739e-05
6.90735e-05
7.0254e-05
7.18898e-05
7.57762e-05
8.21236e-05
7.10393e-05
2.28666e-05
7.8566e-06
3.01933e-05
4.58298e-05
5.4988e-05
6.07983e-05
6.3192e-05
6.3548e-05
6.33606e-05
6.35038e-05
6.40656e-05
6.51621e-05
6.55843e-05
6.65761e-05
6.84149e-05
7.07631e-05
7.23287e-05
7.56334e-05
8.30849e-05
7.11766e-05
2.29818e-05
7.06298e-06
2.71104e-05
4.27222e-05
5.21471e-05
5.92305e-05
6.25983e-05
6.30869e-05
6.30166e-05
6.29475e-05
6.30241e-05
6.40793e-05
6.46459e-05
6.59625e-05
6.82725e-05
7.12054e-05
7.35089e-05
7.55505e-05
8.33178e-05
7.08099e-05
2.3047e-05
6.21833e-06
2.29529e-05
3.81036e-05
4.92956e-05
5.6718e-05
6.18553e-05
6.29579e-05
6.3128e-05
6.31324e-05
6.29945e-05
6.39835e-05
6.45853e-05
6.59593e-05
6.82917e-05
7.12115e-05
7.37219e-05
7.51361e-05
8.20857e-05
7.00262e-05
2.24963e-05
5.27608e-06
1.98197e-05
3.42191e-05
4.54114e-05
5.29367e-05
5.90969e-05
6.25611e-05
6.33988e-05
6.37107e-05
6.35451e-05
6.42272e-05
6.46812e-05
6.57485e-05
6.75569e-05
6.98317e-05
7.29605e-05
7.35198e-05
7.85912e-05
6.57945e-05
2.15714e-05
4.33472e-06
1.57742e-05
2.95061e-05
4.17108e-05
4.99059e-05
5.55235e-05
6.01304e-05
6.17636e-05
6.23422e-05
6.24014e-05
6.25757e-05
6.28285e-05
6.34452e-05
6.44497e-05
6.57037e-05
6.97172e-05
7.11373e-05
7.33313e-05
6.12057e-05
2.03569e-05
2.93396e-06
1.24947e-05
2.74919e-05
3.91511e-05
4.97667e-05
5.4195e-05
5.84171e-05
6.06249e-05
6.0069e-05
5.92929e-05
5.84667e-05
5.83313e-05
5.84331e-05
5.94418e-05
6.02601e-05
6.58424e-05
6.95957e-05
6.63253e-05
5.29793e-05
1.88975e-05
2.98718e-06
1.37621e-05
2.51474e-05
3.30663e-05
3.91334e-05
4.33204e-05
4.58877e-05
4.84152e-05
5.01175e-05
5.20769e-05
5.38444e-05
5.58032e-05
5.8113e-05
6.20253e-05
6.56205e-05
7.27262e-05
6.95274e-05
6.32772e-05
4.58385e-05
1.68432e-05
2.17047e-06
3.30871e-06
5.81507e-06
8.29055e-06
1.01805e-05
1.14509e-05
1.21751e-05
1.26266e-05
1.2848e-05
1.30023e-05
1.30674e-05
1.3173e-05
1.32844e-05
1.34405e-05
1.36925e-05
1.40924e-05
1.47519e-05
1.55624e-05
1.54046e-05
1.3717e-05
)
;

boundaryField
{
    movingWall
    {
        type            nutkWallFunction;
        Cmu             0.09;
        kappa           0.41;
        E               9.8;
        value           uniform 0;
    }
    fixedWalls
    {
        type            nutkWallFunction;
        Cmu             0.09;
        kappa           0.41;
        E               9.8;
        value           uniform 0;
    }
    frontAndBack
    {
        type            empty;
    }
}


// ************************************************************************* //
