/*--------------------------------*- C++ -*----------------------------------*\
| =========                 |                                                 |
| \\      /  F ield         | OpenFOAM: The Open Source CFD Toolbox           |
|  \\    /   O peration     | Version:  5.x                                   |
|   \\  /    A nd           | Web:      www.OpenFOAM.org                      |
|    \\/     M anipulation  |                                                 |
\*---------------------------------------------------------------------------*/
FoamFile
{
    version     2.0;
    format      ascii;
    class       volScalarField;
    location    "12";
    object      p;
}
// * * * * * * * * * * * * * * * * * * * * * * * * * * * * * * * * * * * * * //

dimensions      [0 2 -2 0 0 0 0];

internalField   nonuniform List<scalar> 
400
(
-1.11569e-08
-8.68415e-05
-0.000153127
-0.000426662
-0.00130474
-0.00275654
-0.00444681
-0.00606673
-0.00737938
-0.00824912
-0.00856227
-0.00821178
-0.00719172
-0.00549885
-0.00313967
-0.000293811
0.00265233
0.00509885
0.00652732
0.00684659
0.000103674
-1.63347e-06
-0.000247229
-0.000886246
-0.00202361
-0.00356316
-0.00524389
-0.0068204
-0.00810581
-0.00897448
-0.00932204
-0.00908154
-0.00819532
-0.00663726
-0.00444548
-0.00173889
0.00116808
0.00376672
0.00552166
0.00625091
0.00027423
-6.85397e-05
-0.000715693
-0.00179368
-0.00326877
-0.00495019
-0.00663826
-0.00816558
-0.00940171
-0.0102176
-0.010538
-0.010327
-0.00955463
-0.00820815
-0.00630382
-0.00391728
-0.00123669
0.00139599
0.00349406
0.00456962
2.83637e-05
-0.000547649
-0.00161748
-0.00311974
-0.00487383
-0.00667198
-0.00835484
-0.0098014
-0.0109127
-0.0116246
-0.0119015
-0.0117172
-0.0110508
-0.00990145
-0.00828245
-0.00624149
-0.00388296
-0.00141588
0.000762872
0.00196347
-0.000803301
-0.0015806
-0.00295246
-0.00470393
-0.00658596
-0.00840063
-0.0100166
-0.0113485
-0.0123421
-0.0129672
-0.0132056
-0.0130439
-0.0124758
-0.0115059
-0.0101485
-0.00843542
-0.00642694
-0.00425338
-0.00220782
-0.00102167
-0.00218266
-0.00305888
-0.00454454
-0.00635002
-0.00821931
-0.00996516
-0.0114764
-0.0126928
-0.0135855
-0.014139
-0.0143457
-0.0142037
-0.013717
-0.0128969
-0.0117607
-0.0103332
-0.00865553
-0.00682253
-0.00510005
-0.00395842
-0.00381851
-0.00470286
-0.0061515
-0.00788579
-0.00965865
-0.0112917
-0.0126867
-0.0137968
-0.0146044
-0.0151017
-0.0152874
-0.0151648
-0.0147433
-0.0140397
-0.0130762
-0.0118782
-0.010483
-0.0089705
-0.00758389
-0.00655081
-0.00537154
-0.006212
-0.00755539
-0.00917194
-0.010822
-0.0123359
-0.0136234
-0.0146446
-0.0153861
-0.0158436
-0.0160175
-0.0159132
-0.0155419
-0.0149235
-0.0140861
-0.0130606
-0.0118863
-0.0106397
-0.00955029
-0.00861812
-0.00659379
-0.0073815
-0.00860778
-0.010111
-0.0116509
-0.0130655
-0.0142702
-0.0152274
-0.0159242
-0.0163564
-0.016525
-0.0164348
-0.0160973
-0.0155345
-0.0147799
-0.0138735
-0.0128605
-0.0118039
-0.010938
-0.0100876
-0.00737867
-0.00808908
-0.00922215
-0.0106485
-0.0121107
-0.0134603
-0.0146158
-0.0155379
-0.0162115
-0.0166316
-0.0167984
-0.0167159
-0.0163955
-0.0158601
-0.0151481
-0.01431
-0.0134019
-0.0124573
-0.0117639
-0.010906
-0.00767791
-0.00830815
-0.00938466
-0.0107653
-0.0121874
-0.0135114
-0.0146533
-0.0155696
-0.0162414
-0.0166616
-0.0168291
-0.0167471
-0.016427
-0.0158925
-0.0151864
-0.0143675
-0.013507
-0.0125895
-0.0120574
-0.0110571
-0.00748717
-0.00807037
-0.00911068
-0.01047
-0.011886
-0.0132182
-0.0143793
-0.0153182
-0.0160096
-0.0164425
-0.0166136
-0.0165253
-0.0161891
-0.0156302
-0.014896
-0.0140528
-0.0131753
-0.0122366
-0.0118657
-0.0105558
-0.00689393
-0.00745009
-0.00846219
-0.00979562
-0.0112252
-0.012591
-0.0137988
-0.0147867
-0.0155188
-0.0159779
-0.0161571
-0.016057
-0.0156899
-0.015083
-0.0142887
-0.0133777
-0.012441
-0.0114869
-0.0111216
-0.00951622
-0.00602625
-0.006548
-0.00751265
-0.00879749
-0.0102306
-0.0116435
-0.012922
-0.0139843
-0.0147795
-0.0152806
-0.0154755
-0.0153618
-0.0149518
-0.0142756
-0.0133919
-0.0123765
-0.0113488
-0.0103385
-0.00987852
-0.00807626
-0.00504341
-0.00549459
-0.00635163
-0.00754335
-0.0089539
-0.010417
-0.0117842
-0.0129434
-0.0138231
-0.0143833
-0.0146056
-0.0144823
-0.0140232
-0.0132615
-0.0122623
-0.011105
-0.00993699
-0.00879325
-0.00820118
-0.00623228
-0.0041391
-0.00443088
-0.00506037
-0.0060851
-0.00744616
-0.00896128
-0.0104331
-0.0117104
-0.0126974
-0.013338
-0.0136057
-0.0134897
-0.0129894
-0.0121381
-0.0110035
-0.00965864
-0.00826857
-0.00686522
-0.00599984
-0.00354678
-0.00349932
-0.00347725
-0.00374752
-0.0045414
-0.00583515
-0.007401
-0.00898335
-0.0103914
-0.0115044
-0.0122465
-0.0125795
-0.0124835
-0.0119775
-0.0110529
-0.0097743
-0.00818504
-0.0064419
-0.00452448
-0.00284327
0.00112726
-0.00317699
-0.00263973
-0.00246213
-0.00301438
-0.00424322
-0.0058525
-0.00754396
-0.00909383
-0.010354
-0.0112266
-0.0116612
-0.0116279
-0.0111333
-0.0101649
-0.00875431
-0.00685973
-0.00457332
-0.00164132
0.00199511
0.00927657
-0.00312262
-0.00189036
-0.00137182
-0.00177578
-0.0029564
-0.00458788
-0.00636243
-0.00803553
-0.00943132
-0.0104336
-0.0109777
-0.0110301
-0.0105797
-0.00959458
-0.00807731
-0.00584617
-0.00276174
0.00191719
0.00905636
0.0211936
-0.00351742
-0.000716974
3.01565e-05
-0.000519772
-0.00175069
-0.00341995
-0.0052718
-0.00705406
-0.00856891
-0.00968416
-0.0103218
-0.0104363
-0.0100135
-0.00899613
-0.00748274
-0.00492529
-0.000908264
0.00622553
0.0178524
0.0335459
)
;

boundaryField
{
    movingWall
    {
        type            zeroGradient;
    }
    fixedWalls
    {
        type            zeroGradient;
    }
    frontAndBack
    {
        type            empty;
    }
}


// ************************************************************************* //
