/*--------------------------------*- C++ -*----------------------------------*\
| =========                 |                                                 |
| \\      /  F ield         | OpenFOAM: The Open Source CFD Toolbox           |
|  \\    /   O peration     | Version:  5.x                                   |
|   \\  /    A nd           | Web:      www.OpenFOAM.org                      |
|    \\/     M anipulation  |                                                 |
\*---------------------------------------------------------------------------*/
FoamFile
{
    version     2.0;
    format      ascii;
    class       surfaceScalarField;
    location    "12";
    object      phi;
}
// * * * * * * * * * * * * * * * * * * * * * * * * * * * * * * * * * * * * * //

dimensions      [0 3 -1 0 0 0 0];

internalField   nonuniform List<scalar> 
760
(
1.43634e-07
-1.4363e-07
-1.18022e-07
2.61656e-07
-9.31563e-07
8.13541e-07
-2.2045e-06
1.27294e-06
-3.59535e-06
1.39085e-06
-4.84913e-06
1.25378e-06
-5.91335e-06
1.06422e-06
-6.76011e-06
8.46758e-07
-7.38208e-06
6.21971e-07
-7.78558e-06
4.03504e-07
-7.98067e-06
1.95087e-07
-7.95814e-06
-2.25353e-08
-7.73894e-06
-2.19193e-07
-7.31022e-06
-4.28719e-07
-6.6098e-06
-7.00426e-07
-5.61372e-06
-9.96074e-07
-4.26951e-06
-1.34422e-06
-2.63708e-06
-1.63242e-06
-9.60613e-07
-1.67647e-06
-9.60613e-07
-4.14711e-07
2.71081e-07
-1.40672e-06
1.25366e-06
-2.74424e-06
2.15106e-06
-3.99512e-06
2.52382e-06
-5.06182e-06
2.45755e-06
-6.00719e-06
2.19915e-06
-6.78664e-06
1.84367e-06
-7.39223e-06
1.45235e-06
-7.83841e-06
1.06816e-06
-8.12617e-06
6.91259e-07
-8.2396e-06
3.0852e-07
-8.18021e-06
-8.19245e-08
-7.94082e-06
-4.58587e-07
-7.50174e-06
-8.67798e-07
-6.86237e-06
-1.33979e-06
-5.98014e-06
-1.87831e-06
-4.82575e-06
-2.49861e-06
-3.34315e-06
-3.11502e-06
-1.60183e-06
-3.41779e-06
-2.56244e-06
-1.01196e-06
1.28304e-06
-2.32443e-06
2.56613e-06
-3.49276e-06
3.31939e-06
-4.47389e-06
3.50495e-06
-5.30309e-06
3.28675e-06
-5.98907e-06
2.88514e-06
-6.53256e-06
2.38715e-06
-6.92722e-06
1.84701e-06
-7.18213e-06
1.32306e-06
-7.30276e-06
8.11895e-07
-7.30842e-06
3.14178e-07
-7.20813e-06
-1.82216e-07
-6.98157e-06
-6.85144e-07
-6.61049e-06
-1.23888e-06
-6.08453e-06
-1.86576e-06
-5.37582e-06
-2.58701e-06
-4.46331e-06
-3.41111e-06
-3.29404e-06
-4.2843e-06
-1.80283e-06
-4.909e-06
-4.36527e-06
-1.2423e-06
2.52535e-06
-2.45494e-06
3.77877e-06
-3.44764e-06
4.31209e-06
-4.22838e-06
4.28569e-06
-4.84947e-06
3.90784e-06
-5.32648e-06
3.36214e-06
-5.6738e-06
2.73448e-06
-5.91673e-06
2.08994e-06
-6.06398e-06
1.47031e-06
-6.12375e-06
8.71667e-07
-6.09873e-06
2.89157e-07
-5.98823e-06
-2.92715e-07
-5.78072e-06
-8.92648e-07
-5.47429e-06
-1.54531e-06
-5.05819e-06
-2.28186e-06
-4.51132e-06
-3.13388e-06
-3.80747e-06
-4.11496e-06
-2.90121e-06
-5.19056e-06
-1.65401e-06
-6.15619e-06
-6.01928e-06
-1.17455e-06
3.6999e-06
-2.21048e-06
4.81471e-06
-3.0251e-06
5.12671e-06
-3.64759e-06
4.90817e-06
-4.11605e-06
4.3763e-06
-4.45498e-06
3.70106e-06
-4.69121e-06
2.97071e-06
-4.84907e-06
2.2478e-06
-4.93509e-06
1.55632e-06
-4.95434e-06
8.90917e-07
-4.90746e-06
2.42279e-07
-4.79377e-06
-4.06407e-07
-4.60986e-06
-1.07656e-06
-4.35693e-06
-1.79824e-06
-4.03183e-06
-2.60696e-06
-3.62146e-06
-3.54425e-06
-3.09142e-06
-4.645e-06
-2.38045e-06
-5.90154e-06
-1.39046e-06
-7.14618e-06
-7.40974e-06
-9.67224e-07
4.66712e-06
-1.80471e-06
5.65219e-06
-2.45774e-06
5.77974e-06
-2.94554e-06
5.39597e-06
-3.30012e-06
4.73089e-06
-3.54898e-06
3.94992e-06
-3.7194e-06
3.14113e-06
-3.82865e-06
2.35705e-06
-3.88248e-06
1.61016e-06
-3.88426e-06
8.92691e-07
-3.83408e-06
1.92105e-07
-3.73091e-06
-5.09578e-07
-3.57396e-06
-1.23351e-06
-3.36593e-06
-2.00627e-06
-3.11025e-06
-2.86264e-06
-2.80521e-06
-3.84929e-06
-2.43152e-06
-5.0187e-06
-1.92262e-06
-6.41043e-06
-1.13417e-06
-7.93463e-06
-8.54392e-06
-7.33318e-07
5.40044e-06
-1.36255e-06
6.28142e-06
-1.85812e-06
6.27531e-06
-2.2248e-06
5.76265e-06
-2.4898e-06
4.99588e-06
-2.67611e-06
4.13623e-06
-2.80444e-06
3.26947e-06
-2.88651e-06
2.43912e-06
-2.92726e-06
1.65091e-06
-2.92882e-06
8.94259e-07
-2.88999e-06
1.53272e-07
-2.80864e-06
-5.90928e-07
-2.68376e-06
-1.35839e-06
-2.5186e-06
-2.17143e-06
-2.32048e-06
-3.06076e-06
-2.09442e-06
-4.07535e-06
-1.83064e-06
-5.28248e-06
-1.47567e-06
-6.7654e-06
-9.33996e-07
-8.4763e-06
-9.47791e-06
-4.82839e-07
5.88328e-06
-9.26112e-07
6.72469e-06
-1.27195e-06
6.62115e-06
-1.52976e-06
6.02047e-06
-1.71945e-06
5.18557e-06
-1.85653e-06
4.27331e-06
-1.95421e-06
3.36714e-06
-2.01958e-06
2.50449e-06
-2.05606e-06
1.68739e-06
-2.0645e-06
9.02692e-07
-2.04293e-06
1.31705e-07
-1.98882e-06
-6.45041e-07
-1.90099e-06
-1.44622e-06
-1.78243e-06
-2.28999e-06
-1.64231e-06
-3.20087e-06
-1.49096e-06
-4.2267e-06
-1.32437e-06
-5.44906e-06
-1.09778e-06
-6.99199e-06
-7.21259e-07
-8.85282e-06
-1.01992e-05
-2.61619e-07
6.1449e-06
-5.16946e-07
6.98002e-06
-7.15153e-07
6.81936e-06
-8.72495e-07
6.17781e-06
-9.93747e-07
5.30682e-06
-1.0864e-06
4.36596e-06
-1.15681e-06
3.43755e-06
-1.20792e-06
2.5556e-06
-1.2413e-06
1.72078e-06
-1.257e-06
9.18383e-07
-1.2534e-06
1.28106e-07
-1.22837e-06
-6.70066e-07
-1.18098e-06
-1.49362e-06
-1.11375e-06
-2.35722e-06
-1.03575e-06
-3.27888e-06
-9.59783e-07
-4.30267e-06
-8.85836e-07
-5.52301e-06
-7.80994e-07
-7.09683e-06
-5.68368e-07
-9.06545e-06
-1.07675e-05
-4.71468e-08
6.19204e-06
-1.29206e-07
7.06208e-06
-1.95582e-07
6.88573e-06
-2.53273e-07
6.2355e-06
-3.04428e-07
5.35798e-06
-3.51092e-07
4.41263e-06
-3.92585e-07
3.47904e-06
-4.27657e-07
2.59067e-06
-4.55923e-07
1.74905e-06
-4.7713e-07
9.3959e-07
-4.90684e-07
1.41661e-07
-4.9562e-07
-6.6513e-07
-4.91787e-07
-1.49745e-06
-4.81275e-07
-2.36773e-06
-4.71991e-07
-3.28816e-06
-4.76715e-07
-4.29794e-06
-5.00551e-07
-5.49917e-06
-5.05483e-07
-7.0919e-06
-4.19233e-07
-9.1517e-06
-1.11868e-05
1.70575e-07
6.02147e-06
2.5876e-07
6.97389e-06
3.24131e-07
6.82036e-06
3.5281e-07
6.20682e-06
3.67242e-07
5.34355e-06
3.67637e-07
4.41223e-06
3.58207e-07
3.48847e-06
3.42509e-07
2.60637e-06
3.22129e-07
1.76943e-06
2.97273e-07
9.64446e-07
2.67436e-07
1.71498e-07
2.32133e-07
-6.29827e-07
1.90493e-07
-1.45581e-06
1.40675e-07
-2.31791e-06
7.62794e-08
-3.22376e-06
-1.58697e-08
-4.20579e-06
-1.37182e-07
-5.37786e-06
-2.62223e-07
-6.96686e-06
-3.11511e-07
-9.10241e-06
-1.14983e-05
3.79261e-07
5.64221e-06
6.28444e-07
6.72471e-06
8.17749e-07
6.63106e-06
9.42961e-07
6.08161e-06
1.02947e-06
5.25703e-06
1.08363e-06
4.35807e-06
1.11228e-06
3.45982e-06
1.12071e-06
2.59793e-06
1.11152e-06
1.77862e-06
1.08489e-06
9.91074e-07
1.03919e-06
2.17199e-07
9.7244e-07
-5.63074e-07
8.82105e-07
-1.36547e-06
7.66052e-07
-2.20186e-06
6.20212e-07
-3.07792e-06
4.36753e-07
-4.02233e-06
2.01548e-07
-5.14266e-06
-6.5482e-08
-6.69983e-06
-1.67619e-07
-9.00027e-06
-1.16659e-05
5.80632e-07
5.06158e-06
9.87935e-07
6.31741e-06
1.29703e-06
6.32196e-06
1.52229e-06
5.85634e-06
1.68774e-06
5.09159e-06
1.80492e-06
4.24089e-06
1.88036e-06
3.38438e-06
1.91992e-06
2.55837e-06
1.92687e-06
1.77166e-06
1.90146e-06
1.01648e-06
1.84106e-06
2.77599e-07
1.74256e-06
-4.6457e-07
1.60188e-06
-1.22479e-06
1.41601e-06
-2.01599e-06
1.18238e-06
-2.8443e-06
8.95343e-07
-3.7353e-06
5.43951e-07
-4.79126e-06
1.89847e-07
-6.34573e-06
-1.30499e-08
-8.79738e-06
-1.1679e-05
7.49727e-07
4.31185e-06
1.3083e-06
5.75883e-06
1.7355e-06
5.89477e-06
2.07792e-06
5.51392e-06
2.33839e-06
4.83113e-06
2.5325e-06
4.04678e-06
2.66712e-06
3.24977e-06
2.74793e-06
2.47756e-06
2.77855e-06
1.74105e-06
2.75922e-06
1.0358e-06
2.6864e-06
3.50426e-07
2.55565e-06
-3.33826e-07
2.3626e-06
-1.03173e-06
2.10258e-06
-1.75598e-06
1.7738e-06
-2.51552e-06
1.37814e-06
-3.33964e-06
9.15792e-07
-4.32891e-06
4.62646e-07
-5.89258e-06
1.54625e-07
-8.48936e-06
-1.15243e-05
8.95659e-07
3.41619e-06
1.57183e-06
5.08266e-06
2.12179e-06
5.34481e-06
2.59214e-06
5.04356e-06
2.96812e-06
4.45515e-06
3.25616e-06
3.75874e-06
3.46467e-06
3.04126e-06
3.59969e-06
2.34255e-06
3.66433e-06
1.6764e-06
3.65908e-06
1.04105e-06
3.57907e-06
4.30444e-07
3.417e-06
-1.71758e-07
3.17151e-06
-7.86244e-07
2.83504e-06
-1.41951e-06
2.40554e-06
-2.08602e-06
1.89379e-06
-2.82789e-06
1.30652e-06
-3.74164e-06
7.26796e-07
-5.31286e-06
3.02126e-07
-8.06469e-06
-1.12222e-05
9.17088e-07
2.4991e-06
1.70563e-06
4.29412e-06
2.40401e-06
4.64643e-06
3.02412e-06
4.42346e-06
3.54121e-06
3.93806e-06
3.94735e-06
3.3526e-06
4.24941e-06
2.7392e-06
4.45501e-06
2.13694e-06
4.56658e-06
1.56483e-06
4.58547e-06
1.02216e-06
4.50881e-06
5.07111e-07
4.32084e-06
1.62125e-08
4.02879e-06
-4.942e-07
3.62056e-06
-1.01128e-06
3.0923e-06
-1.55776e-06
2.46223e-06
-2.19782e-06
1.73847e-06
-3.01787e-06
1.01866e-06
-4.59306e-06
4.64703e-07
-7.51073e-06
-1.07575e-05
8.16463e-07
1.68264e-06
1.66911e-06
3.44147e-06
2.54428e-06
3.77126e-06
3.34048e-06
3.62726e-06
4.0172e-06
3.26133e-06
4.56365e-06
2.80615e-06
4.98041e-06
2.32245e-06
5.27368e-06
1.84367e-06
5.44597e-06
1.39254e-06
5.49934e-06
9.68789e-07
5.43066e-06
5.75794e-07
5.2499e-06
1.96965e-07
4.92753e-06
-1.71827e-07
4.47606e-06
-5.59805e-07
3.8766e-06
-9.58308e-07
3.15479e-06
-1.47601e-06
2.30841e-06
-2.17149e-06
1.4414e-06
-3.72604e-06
6.75129e-07
-6.74446e-06
-1.00824e-05
3.86209e-07
1.29643e-06
1.37269e-06
2.45499e-06
2.42657e-06
2.71738e-06
3.41787e-06
2.63595e-06
4.27219e-06
2.40701e-06
4.97942e-06
2.09892e-06
5.53587e-06
1.766e-06
5.94268e-06
1.43685e-06
6.20541e-06
1.12981e-06
6.33039e-06
8.43804e-07
6.31991e-06
5.86274e-07
6.1812e-06
3.35676e-07
5.9073e-06
1.02077e-07
5.49493e-06
-1.47434e-07
4.91235e-06
-3.75728e-07
4.20102e-06
-7.64682e-07
3.31595e-06
-1.28642e-06
2.33876e-06
-2.74885e-06
1.15005e-06
-5.55575e-06
-8.93232e-06
-5.29765e-07
1.8262e-06
6.16366e-07
1.30886e-06
2.02155e-06
1.3122e-06
3.29781e-06
1.35969e-06
4.39564e-06
1.30918e-06
5.32121e-06
1.17336e-06
6.07327e-06
1.01394e-06
6.65316e-06
8.56961e-07
7.07344e-06
7.09541e-07
7.34323e-06
5.74006e-07
7.47809e-06
4.51422e-07
7.48066e-06
3.33104e-07
7.35614e-06
2.26597e-07
7.10042e-06
1.08286e-07
6.70898e-06
1.57078e-08
6.17904e-06
-2.34742e-07
5.46349e-06
-5.70864e-07
4.48217e-06
-1.76753e-06
2.49666e-06
-3.57024e-06
-6.43567e-06
1.8262e-06
3.13505e-06
4.44726e-06
5.80695e-06
7.11612e-06
8.28948e-06
9.30342e-06
1.01604e-05
1.08699e-05
1.14439e-05
1.18953e-05
1.22285e-05
1.24551e-05
1.25633e-05
1.2579e-05
1.23443e-05
1.17734e-05
1.00059e-05
6.43567e-06
)
;

boundaryField
{
    movingWall
    {
        type            calculated;
        value           uniform 0;
    }
    fixedWalls
    {
        type            calculated;
        value           uniform 0;
    }
    frontAndBack
    {
        type            empty;
        value           nonuniform 0();
    }
}


// ************************************************************************* //
