/*--------------------------------*- C++ -*----------------------------------*\
| =========                 |                                                 |
| \\      /  F ield         | OpenFOAM: The Open Source CFD Toolbox           |
|  \\    /   O peration     | Version:  5.x                                   |
|   \\  /    A nd           | Web:      www.OpenFOAM.org                      |
|    \\/     M anipulation  |                                                 |
\*---------------------------------------------------------------------------*/
FoamFile
{
    version     2.0;
    format      ascii;
    class       volVectorField;
    location    "12";
    object      U;
}
// * * * * * * * * * * * * * * * * * * * * * * * * * * * * * * * * * * * * * //

dimensions      [0 1 -1 0 0 0 0];

internalField   nonuniform List<vector> 
400
(
(0.00275982 -0.00371033 0)
(0.00202624 -0.000656993 0)
(-0.00540998 0.00493569 0)
(-0.0273916 0.0107183 0)
(-0.0618374 0.0137627 0)
(-0.0881771 0.0120302 0)
(-0.111861 0.0102958 0)
(-0.129606 0.00794014 0)
(-0.143778 0.00580971 0)
(-0.153289 0.00344864 0)
(-0.158758 0.00145224 0)
(-0.160704 -0.000700415 0)
(-0.158385 -0.0041426 0)
(-0.150947 -0.00643962 0)
(-0.138486 -0.00985503 0)
(-0.119867 -0.0126075 0)
(-0.0958041 -0.0158177 0)
(-0.0669315 -0.0170384 0)
(-0.036257 -0.0143624 0)
(-0.00885773 -0.00192295 0)
(-0.00245736 -0.00150617 0)
(-0.0134172 0.0130655 0)
(-0.0391051 0.0309091 0)
(-0.0686042 0.0396546 0)
(-0.0932557 0.0387473 0)
(-0.113439 0.0348477 0)
(-0.130501 0.0294419 0)
(-0.143224 0.0236305 0)
(-0.153728 0.0170237 0)
(-0.160879 0.0108636 0)
(-0.164905 0.00489653 0)
(-0.165337 -0.00105986 0)
(-0.16209 -0.00755544 0)
(-0.155102 -0.0146841 0)
(-0.143812 -0.0231736 0)
(-0.127579 -0.0328438 0)
(-0.106466 -0.0435223 0)
(-0.0805727 -0.0524472 0)
(-0.0500194 -0.053029 0)
(-0.0179251 -0.0315109 0)
(-0.00917692 0.0153022 0)
(-0.0322494 0.0406837 0)
(-0.058687 0.056117 0)
(-0.0817574 0.0604572 0)
(-0.0997866 0.0570203 0)
(-0.114732 0.0500434 0)
(-0.126657 0.0412528 0)
(-0.135789 0.0318487 0)
(-0.142308 0.0230827 0)
(-0.14559 0.0143723 0)
(-0.14685 0.00564037 0)
(-0.145775 -0.00318496 0)
(-0.142657 -0.0123319 0)
(-0.136467 -0.0222916 0)
(-0.127312 -0.0336746 0)
(-0.114443 -0.0468838 0)
(-0.0975436 -0.062159 0)
(-0.0763956 -0.0782181 0)
(-0.0498117 -0.0884458 0)
(-0.0207351 -0.0742373 0)
(-0.0133036 0.0388432 0)
(-0.0381126 0.064122 0)
(-0.0611737 0.0764139 0)
(-0.0789799 0.0775968 0)
(-0.0924231 0.0716466 0)
(-0.103151 0.0621938 0)
(-0.111027 0.0509554 0)
(-0.116768 0.0392156 0)
(-0.120426 0.0277532 0)
(-0.122406 0.0165462 0)
(-0.122745 0.00570635 0)
(-0.121362 -0.00518096 0)
(-0.118171 -0.0164969 0)
(-0.112953 -0.0288154 0)
(-0.105652 -0.0427365 0)
(-0.0958619 -0.0588134 0)
(-0.0828795 -0.0772292 0)
(-0.0660062 -0.0971403 0)
(-0.043666 -0.113783 0)
(-0.0191123 -0.108821 0)
(-0.0135619 0.0610406 0)
(-0.0361673 0.0852392 0)
(-0.0548378 0.0938277 0)
(-0.0687747 0.0916767 0)
(-0.0790426 0.0828458 0)
(-0.0867707 0.0707659 0)
(-0.0921344 0.0572003 0)
(-0.0959362 0.0434841 0)
(-0.0982568 0.0302619 0)
(-0.0992885 0.0175408 0)
(-0.0989871 0.00518729 0)
(-0.0973582 -0.00719199 0)
(-0.0943498 -0.0200138 0)
(-0.089931 -0.0339082 0)
(-0.0840991 -0.0495788 0)
(-0.076725 -0.0677954 0)
(-0.0671429 -0.0891053 0)
(-0.0541687 -0.113097 0)
(-0.0357878 -0.135773 0)
(-0.016595 -0.13811 0)
(-0.0116155 0.0817015 0)
(-0.0302602 0.103755 0)
(-0.0449039 0.108563 0)
(-0.0558407 0.102939 0)
(-0.0636339 0.0911728 0)
(-0.069285 0.0766704 0)
(-0.073147 0.0612573 0)
(-0.0758548 0.0461336 0)
(-0.0774154 0.0316862 0)
(-0.0779461 0.0177974 0)
(-0.0774401 0.00424984 0)
(-0.0758877 -0.00930659 0)
(-0.073255 -0.0232932 0)
(-0.069561 -0.0382898 0)
(-0.0648749 -0.0550198 0)
(-0.059223 -0.0743844 0)
(-0.05229 -0.0973379 0)
(-0.042961 -0.124261 0)
(-0.0304937 -0.152882 0)
(-0.010443 -0.162035 0)
(-0.00952101 0.0991375 0)
(-0.0229783 0.11876 0)
(-0.0341441 0.120362 0)
(-0.0423622 0.111612 0)
(-0.0481094 0.097371 0)
(-0.0522663 0.0809697 0)
(-0.0551479 0.0641936 0)
(-0.057176 0.0480133 0)
(-0.0583487 0.0326105 0)
(-0.0587538 0.0178085 0)
(-0.0583684 0.00333105 0)
(-0.0571524 -0.0111893 0)
(-0.0550574 -0.0261545 0)
(-0.0521119 -0.0420543 0)
(-0.0484242 -0.0595624 0)
(-0.0441018 -0.0796547 0)
(-0.0390958 -0.103549 0)
(-0.0323963 -0.132596 0)
(-0.0249163 -0.165416 0)
(-0.00771633 -0.182177 0)
(-0.0066023 0.112451 0)
(-0.015508 0.130117 0)
(-0.0235802 0.129161 0)
(-0.0292733 0.118027 0)
(-0.0332665 0.10198 0)
(-0.036223 0.0842179 0)
(-0.03836 0.0664472 0)
(-0.0399218 0.0494735 0)
(-0.0408973 0.0333684 0)
(-0.0413354 0.0178966 0)
(-0.0411981 0.00271515 0)
(-0.0404263 -0.0125589 0)
(-0.038967 -0.028302 0)
(-0.0368493 -0.0449134 0)
(-0.0342006 -0.0629556 0)
(-0.0311835 -0.0834159 0)
(-0.027903 -0.10777 0)
(-0.0235149 -0.138192 0)
(-0.0203811 -0.174133 0)
(-0.00374113 -0.198013 0)
(-0.00420353 0.120724 0)
(-0.00854154 0.137404 0)
(-0.0135371 0.134822 0)
(-0.0168635 0.122309 0)
(-0.0192581 0.105151 0)
(-0.0211464 0.0865454 0)
(-0.0226136 0.0681407 0)
(-0.0237674 0.0506421 0)
(-0.0245782 0.0340711 0)
(-0.0250602 0.0181444 0)
(-0.0251748 0.00247146 0)
(-0.024868 -0.0133451 0)
(-0.0240971 -0.0296565 0)
(-0.0228806 -0.0467856 0)
(-0.0213578 -0.0651569 0)
(-0.0197262 -0.0857133 0)
(-0.0182107 -0.110218 0)
(-0.0157281 -0.141499 0)
(-0.0166968 -0.179819 0)
(-0.00148705 -0.210769 0)
(-0.000891442 0.124543 0)
(-0.00192787 0.141407 0)
(-0.00409029 0.13781 0)
(-0.00509768 0.124632 0)
(-0.00595842 0.107004 0)
(-0.00678852 0.0880153 0)
(-0.00755595 0.0693016 0)
(-0.00826894 0.0515287 0)
(-0.00887249 0.0347068 0)
(-0.00935572 0.0185324 0)
(-0.00969093 0.00258989 0)
(-0.00984665 -0.0135288 0)
(-0.00980518 -0.030159 0)
(-0.00958012 -0.0475618 0)
(-0.00930019 -0.0660311 0)
(-0.00917221 -0.0864159 0)
(-0.00965391 -0.110733 0)
(-0.00875309 -0.142424 0)
(-0.0136979 -0.182547 0)
(0.00153383 -0.220214 0)
(0.00156633 0.123211 0)
(0.00411321 0.14151 0)
(0.00512811 0.137815 0)
(0.00626289 0.124872 0)
(0.00690469 0.107349 0)
(0.00718316 0.0884821 0)
(0.00718805 0.0698291 0)
(0.00698875 0.0520594 0)
(0.00665896 0.0352177 0)
(0.00622433 0.0190181 0)
(0.00569918 0.00304843 0)
(0.00508725 -0.0131028 0)
(0.00437252 -0.0297612 0)
(0.00354049 -0.0471583 0)
(0.00245503 -0.065482 0)
(0.000970382 -0.0854495 0)
(-0.00168249 -0.10924 0)
(-0.00223907 -0.140974 0)
(-0.0113113 -0.183134 0)
(0.00391472 -0.227045 0)
(0.00363101 0.11865 0)
(0.0101325 0.138402 0)
(0.0137033 0.135622 0)
(0.0171483 0.123705 0)
(0.0194805 0.106549 0)
(0.0210056 0.0880889 0)
(0.0219259 0.0697509 0)
(0.0223555 0.052218 0)
(0.0223857 0.0355778 0)
(0.0220542 0.0195827 0)
(0.0213648 0.0038441 0)
(0.0202982 -0.0120456 0)
(0.0187981 -0.0284124 0)
(0.0168523 -0.045482 0)
(0.0142818 -0.0633755 0)
(0.0110605 -0.0826914 0)
(0.00622025 -0.105628 0)
(0.00408153 -0.137078 0)
(-0.00918002 -0.181496 0)
(0.007414 -0.23112 0)
(0.00601194 0.109563 0)
(0.0156535 0.131802 0)
(0.0222808 0.130229 0)
(0.0276776 0.120024 0)
(0.0319005 0.103943 0)
(0.0348361 0.0863462 0)
(0.0368492 0.0687242 0)
(0.0380681 0.0517764 0)
(0.0385835 0.0356511 0)
(0.0384386 0.0201596 0)
(0.0376275 0.00496098 0)
(0.036119 -0.0103307 0)
(0.0338056 -0.0260357 0)
(0.030687 -0.0424032 0)
(0.0264931 -0.0595313 0)
(0.0214674 -0.0779419 0)
(0.0144085 -0.099755 0)
(0.0102499 -0.13092 0)
(-0.00702474 -0.178104 0)
(0.0113736 -0.233308 0)
(0.00784721 0.0966388 0)
(0.0206735 0.122877 0)
(0.0300359 0.123587 0)
(0.0376733 0.114828 0)
(0.0439584 0.100165 0)
(0.0486171 0.0836338 0)
(0.0520058 0.0669474 0)
(0.0542524 0.0508281 0)
(0.0554359 0.0354746 0)
(0.0556064 0.0207639 0)
(0.0547443 0.00641623 0)
(0.0528191 -0.00792692 0)
(0.0496572 -0.0225772 0)
(0.0453207 -0.0378225 0)
(0.0393702 -0.0538074 0)
(0.0324542 -0.0710508 0)
(0.0228873 -0.0916211 0)
(0.0166694 -0.122901 0)
(-0.00445522 -0.173275 0)
(0.0163933 -0.233903 0)
(0.00978521 0.0802092 0)
(0.0249288 0.109798 0)
(0.0367558 0.113162 0)
(0.0467757 0.106231 0)
(0.0553412 0.0935309 0)
(0.0621021 0.0786581 0)
(0.0672092 0.0634407 0)
(0.0707806 0.0486613 0)
(0.0728708 0.0345646 0)
(0.0735455 0.0210903 0)
(0.0727588 0.00803551 0)
(0.0704884 -0.00491704 0)
(0.0664705 -0.018038 0)
(0.0609196 -0.0316733 0)
(0.0531031 -0.0460405 0)
(0.044199 -0.0618341 0)
(0.0318088 -0.0810826 0)
(0.0235482 -0.112712 0)
(-0.0019563 -0.167035 0)
(0.0220928 -0.233929 0)
(0.00989641 0.0606047 0)
(0.027475 0.0957014 0)
(0.0414068 0.102037 0)
(0.053904 0.0967521 0)
(0.0652221 0.0858531 0)
(0.0746521 0.0727574 0)
(0.0819577 0.0591601 0)
(0.0872202 0.0459091 0)
(0.0905103 0.0333131 0)
(0.0919284 0.0213504 0)
(0.0914028 0.0099215 0)
(0.0889507 -0.0013448 0)
(0.0841611 -0.01248 0)
(0.0775475 -0.0240108 0)
(0.0678629 -0.0362319 0)
(0.0570632 -0.0502079 0)
(0.0416619 -0.0678749 0)
(0.0313106 -0.100039 0)
(0.000377418 -0.15911 0)
(0.0290825 -0.23073 0)
(0.00938858 0.0409223 0)
(0.0267829 0.0762597 0)
(0.0428785 0.0845443 0)
(0.0583492 0.0813393 0)
(0.0728538 0.0728622 0)
(0.0854485 0.0623834 0)
(0.0954214 0.051327 0)
(0.102766 0.0404504 0)
(0.107537 0.030167 0)
(0.109972 0.0204555 0)
(0.109831 0.0113173 0)
(0.107558 0.00238518 0)
(0.102373 -0.00627758 0)
(0.0952772 -0.0152627 0)
(0.0841508 -0.0247469 0)
(0.0721436 -0.0364179 0)
(0.0538819 -0.0519673 0)
(0.0413065 -0.0846848 0)
(0.00469722 -0.147375 0)
(0.0387813 -0.219203 0)
(-0.000196981 0.0250335 0)
(0.0203614 0.0607371 0)
(0.0384862 0.0686606 0)
(0.0575991 0.0667112 0)
(0.0760115 0.0603052 0)
(0.0920442 0.0522642 0)
(0.105089 0.0436361 0)
(0.115032 0.0350555 0)
(0.121805 0.0270093 0)
(0.125955 0.019517 0)
(0.126982 0.0126811 0)
(0.125876 0.00619543 0)
(0.121271 0.000151913 0)
(0.115303 -0.00620591 0)
(0.104211 -0.0126002 0)
(0.093065 -0.021404 0)
(0.0729345 -0.0340987 0)
(0.0594915 -0.065466 0)
(0.0185638 -0.126967 0)
(0.0559308 -0.189583 0)
(-0.0132601 0.0289676 0)
(-0.000190228 0.0314727 0)
(0.0265424 0.034843 0)
(0.0526674 0.035722 0)
(0.0761992 0.0338888 0)
(0.096751 0.0300068 0)
(0.113756 0.0255568 0)
(0.127464 0.0210558 0)
(0.137511 0.0168151 0)
(0.144781 0.0127984 0)
(0.148608 0.00926603 0)
(0.150399 0.00569368 0)
(0.148588 0.0027395 0)
(0.145576 -0.0011327 0)
(0.13731 -0.0040875 0)
(0.129835 -0.0103593 0)
(0.111461 -0.018627 0)
(0.101654 -0.0447087 0)
(0.0606241 -0.0911846 0)
(0.0898943 -0.135129 0)
(0.0437776 0.0375448 0)
(0.0492307 0.029829 0)
(0.0706459 0.0273869 0)
(0.100817 0.0271017 0)
(0.127913 0.0261577 0)
(0.152843 0.0241543 0)
(0.174696 0.0216223 0)
(0.194058 0.0191105 0)
(0.20991 0.016689 0)
(0.223371 0.0145509 0)
(0.233508 0.0125316 0)
(0.241732 0.0108194 0)
(0.246921 0.00904069 0)
(0.250698 0.00755448 0)
(0.250869 0.00533727 0)
(0.2495 0.00309113 0)
(0.237327 0.00223697 0)
(0.225092 -0.00800631 0)
(0.175153 -0.0122817 0)
(0.162393 -0.0568353 0)
)
;

boundaryField
{
    movingWall
    {
        type            fixedValue;
        value           uniform (1 0 0);
    }
    fixedWalls
    {
        type            noSlip;
    }
    frontAndBack
    {
        type            empty;
    }
}


// ************************************************************************* //
