/*--------------------------------*- C++ -*----------------------------------*\
| =========                 |                                                 |
| \\      /  F ield         | OpenFOAM: The Open Source CFD Toolbox           |
|  \\    /   O peration     | Version:  5.x                                   |
|   \\  /    A nd           | Web:      www.OpenFOAM.org                      |
|    \\/     M anipulation  |                                                 |
\*---------------------------------------------------------------------------*/
FoamFile
{
    version     2.0;
    format      ascii;
    class       volScalarField;
    location    "0.8";
    object      p;
}
// * * * * * * * * * * * * * * * * * * * * * * * * * * * * * * * * * * * * * //

dimensions      [0 2 -2 0 0 0 0];

internalField   nonuniform List<scalar> 
336
(
-6.61804e-06
-0.000856641
-0.003073
-0.00597803
-0.00900706
-0.0120661
-0.0153964
-0.0193311
-0.0239806
-0.0288617
-0.0325884
-0.0336607
0.000767983
-0.000277588
-0.00249172
-0.00538145
-0.00857447
-0.0119937
-0.0157508
-0.0199926
-0.0247044
-0.0294777
-0.0332258
-0.0345508
0.00349488
0.00153756
-0.00122107
-0.00441758
-0.00786615
-0.0115574
-0.0156327
-0.0202703
-0.0255215
-0.0311302
-0.0362708
-0.0393845
0.0081357
0.00444082
0.000615112
-0.00312973
-0.00686723
-0.0107181
-0.0149783
-0.0200365
-0.0261894
-0.0334895
-0.0416934
-0.0492867
0.0142914
0.00797725
0.00263076
-0.00177986
-0.00571162
-0.009475
-0.0136146
-0.0188777
-0.0259771
-0.0355421
-0.0489103
-0.0655088
0.0213026
0.0114437
0.00418099
-0.000878519
-0.00471987
-0.00789278
-0.0112638
-0.0160746
-0.0236287
-0.0356019
-0.0572896
-0.0921156
0.0280742
0.01374
0.00425925
-0.00126302
-0.00449163
-0.00623202
-0.00767365
-0.0105774
-0.0169314
-0.0303168
-0.0648568
-0.135866
0.0329036
0.013241
0.00138335
-0.00422503
-0.00607543
-0.00517509
-0.00283031
-0.000887037
-0.00136533
-0.00927401
-0.0482444
-0.15177
0.0333789
0.00770311
-0.00650514
-0.0116561
-0.0112429
-0.00640903
0.0017664
0.012217
0.0246329
0.0378423
0.0451397
0.0743047
0.0263598
-0.00577286
-0.0220588
-0.0260462
-0.0225298
-0.0129298
0.00177042
0.0209155
0.0447612
0.0740351
0.109917
0.170753
0.00800203
-0.0307315
-0.0484084
-0.0501543
-0.042499
-0.0273808
-0.00593257
0.0211783
0.0541084
0.0936376
0.141726
0.207153
-0.0263414
-0.0714312
-0.0890673
-0.0867157
-0.0732599
-0.0514156
-0.0226122
0.0123445
0.0534493
0.101287
0.15728
0.225335
-0.0826069
-0.133118
-0.147897
-0.138191
-0.116157
-0.0855512
-0.0481497
-0.00487077
0.0442215
0.0996059
0.162206
0.233594
-0.169366
-0.222638
-0.229046
-0.206358
-0.171275
-0.128761
-0.0808213
-0.0282933
0.0289334
0.0914671
0.160137
0.235786
-0.300907
-0.349478
-0.336584
-0.291467
-0.236594
-0.17783
-0.116904
-0.0540757
0.0113903
0.0806417
0.154908
0.235304
-0.502909
-0.526889
-0.473516
-0.390922
-0.306926
-0.226733
-0.150492
-0.0768495
-0.00369296
0.0712202
0.150019
0.234708
-0.822817
-0.772127
-0.64001
-0.49831
-0.37364
-0.266917
-0.174191
-0.0906361
-0.0116369
0.0667794
0.148051
0.235414
-1.36994
-1.10547
-0.823692
-0.596631
-0.421227
-0.286124
-0.179286
-0.0896867
-0.00890198
0.0692213
0.149522
0.236425
-2.43959
-1.53464
-0.952813
-0.621688
-0.4054
-0.25652
-0.14955
-0.0654523
0.00806767
0.078659
0.151689
0.23182
-4.27054
-1.95263
-0.887014
-0.48055
-0.275479
-0.153454
-0.0743216
-0.0144537
0.0390522
0.0928322
0.150784
0.216001
0.299764
0.451212
0.536275
0.591604
0.621748
0.624664
0.602853
0.570423
0.295245
0.406074
0.486127
0.542857
0.576752
0.586669
0.572024
0.538305
0.300138
0.390605
0.465753
0.523069
0.559856
0.573449
0.55846
0.513798
0.307713
0.390441
0.464432
0.524637
0.566337
0.584431
0.568241
0.51151
0.313595
0.395414
0.472764
0.540116
0.591392
0.618824
0.605826
0.540283
0.318071
0.403801
0.488991
0.568665
0.636089
0.680865
0.679351
0.610697
0.322313
0.415161
0.512133
0.609788
0.701852
0.77598
0.800431
0.740273
0.327096
0.42865
0.540357
0.661669
0.788778
0.909564
0.985274
0.960014
0.33226
0.442452
0.570448
0.72057
0.894661
1.0853
1.25474
1.32414
0.334826
0.451039
0.593867
0.775026
1.0065
1.295
1.63534
1.9521
0.324412
0.437171
0.58273
0.781594
1.06221
1.4718
2.14322
3.14812
0.292132
0.38533
0.507924
0.684781
0.963289
1.46887
2.64873
5.07897
)
;

boundaryField
{
    lid
    {
        type            zeroGradient;
    }
    fixedWalls
    {
        type            zeroGradient;
    }
    frontAndBack
    {
        type            empty;
    }
}


// ************************************************************************* //
