/*--------------------------------*- C++ -*----------------------------------*\
| =========                 |                                                 |
| \\      /  F ield         | OpenFOAM: The Open Source CFD Toolbox           |
|  \\    /   O peration     | Version:  5.x                                   |
|   \\  /    A nd           | Web:      www.OpenFOAM.org                      |
|    \\/     M anipulation  |                                                 |
\*---------------------------------------------------------------------------*/
FoamFile
{
    version     2.0;
    format      ascii;
    class       surfaceScalarField;
    location    "0.8";
    object      phi;
}
// * * * * * * * * * * * * * * * * * * * * * * * * * * * * * * * * * * * * * //

dimensions      [0 3 -1 0 0 0 0];

internalField   nonuniform List<scalar> 
632
(
1.0563e-08
-1.05074e-08
2.00811e-08
-9.51819e-09
2.09024e-08
-8.21377e-10
1.57818e-08
5.12055e-09
1.13483e-08
4.43334e-09
1.33849e-08
-2.03677e-09
2.36802e-08
-1.02953e-08
3.83703e-08
-1.46901e-08
4.83905e-08
-1.00203e-08
4.3353e-08
5.03736e-09
2.08158e-08
2.2537e-08
2.08155e-08
1.26044e-08
-2.31119e-08
1.42208e-08
-1.11346e-08
-2.43904e-09
1.58384e-08
-2.85457e-08
3.12271e-08
-4.9378e-08
2.52655e-08
-5.20322e-08
6.1721e-10
-3.15062e-08
-3.08217e-08
5.77138e-09
-5.19681e-08
4.23942e-08
-4.66434e-08
5.61824e-08
-8.7511e-09
3.45743e-08
4.41448e-08
5.53895e-08
1.77338e-09
-2.48854e-08
-2.72046e-08
1.78433e-08
-8.66419e-08
7.52755e-08
-1.57463e-07
1.02048e-07
-2.14399e-07
8.22015e-08
-2.3539e-07
2.16082e-08
-2.09273e-07
-5.69386e-08
-1.41178e-07
-1.20064e-07
-5.42285e-08
-1.33593e-07
1.46383e-08
-7.76182e-08
3.0352e-08
2.84308e-08
8.57413e-08
-2.01731e-08
-4.71224e-09
-1.04596e-07
1.02266e-07
-2.38361e-07
2.0904e-07
-3.86505e-07
2.50192e-07
-5.08554e-07
2.0425e-07
-5.68834e-07
8.18882e-08
-5.45179e-07
-8.05941e-08
-4.36379e-07
-2.28864e-07
-2.68034e-07
-3.01939e-07
-9.54339e-08
-2.50218e-07
6.04372e-09
-7.30471e-08
9.17849e-08
-5.46187e-08
4.99065e-08
-2.23498e-07
2.71146e-07
-4.69593e-07
4.55135e-07
-7.36126e-07
5.16725e-07
-9.62577e-07
4.30701e-07
-1.09496e-06
2.14268e-07
-1.09431e-06
-8.12381e-08
-9.45302e-07
-3.77876e-07
-6.66895e-07
-5.80346e-07
-3.27954e-07
-5.8916e-07
-6.00978e-08
-3.40904e-07
3.16871e-08
-1.03772e-07
1.53678e-07
-3.90409e-07
5.57783e-07
-7.92665e-07
8.5739e-07
-1.22653e-06
9.50588e-07
-1.60793e-06
8.12106e-07
-1.86166e-06
4.67991e-07
-1.92738e-06
-1.55116e-08
-1.76621e-06
-5.39048e-07
-1.37272e-06
-9.7384e-07
-8.03577e-07
-1.1583e-06
-2.37673e-07
-9.06808e-07
-2.05986e-07
-1.69369e-07
3.23047e-07
-6.09617e-07
9.98031e-07
-1.21471e-06
1.46249e-06
-1.86915e-06
1.60502e-06
-2.46465e-06
1.40761e-06
-2.90648e-06
9.09816e-07
-3.11455e-06
1.92557e-07
-3.02293e-06
-6.30665e-07
-2.58327e-06
-1.41351e-06
-1.78518e-06
-1.95639e-06
-7.44714e-07
-1.94727e-06
-9.507e-07
-2.51717e-07
5.74764e-07
-8.80283e-07
1.6266e-06
-1.73161e-06
2.31381e-06
-2.65553e-06
2.52895e-06
-3.5224e-06
2.27448e-06
-4.2265e-06
1.61392e-06
-4.68219e-06
6.48247e-07
-4.81562e-06
-4.97235e-07
-4.55331e-06
-1.67582e-06
-3.79913e-06
-2.71057e-06
-2.35712e-06
-3.38928e-06
-3.30782e-06
-3.49258e-07
9.24022e-07
-1.19479e-06
2.47213e-06
-2.32353e-06
3.44256e-06
-3.54726e-06
3.75267e-06
-4.71906e-06
3.44629e-06
-5.73407e-06
2.62892e-06
-6.52307e-06
1.43725e-06
-7.04503e-06
2.47245e-08
-7.28042e-06
-1.44042e-06
-7.22391e-06
-2.76709e-06
-6.9081e-06
-3.70509e-06
-3.65558e-06
-6.56034e-06
-4.59308e-07
1.38333e-06
-1.5403e-06
3.55312e-06
-2.95668e-06
4.85893e-06
-4.47664e-06
5.27263e-06
-5.93797e-06
4.90762e-06
-7.24213e-06
3.93308e-06
-8.34078e-06
2.53589e-06
-9.22151e-06
9.05456e-07
-9.89532e-06
-7.66618e-07
-1.03854e-05
-2.27698e-06
-1.07123e-05
-3.3782e-06
-3.70237e-06
-1.06655e-05
-5.80284e-07
1.96361e-06
-1.90407e-06
4.87691e-06
-3.59235e-06
6.54721e-06
-5.36345e-06
7.04373e-06
-7.04262e-06
6.5868e-06
-8.5424e-06
5.43286e-06
-9.83541e-06
3.82891e-06
-1.09283e-05
1.99834e-06
-1.18378e-05
1.42844e-07
-1.25663e-05
-1.54847e-06
-1.30603e-05
-2.88413e-06
-3.66912e-06
-1.30936e-05
-7.14757e-07
2.67837e-06
-2.27918e-06
6.44132e-06
-4.19452e-06
8.46255e-06
-6.12602e-06
8.97523e-06
-7.8964e-06
8.35718e-06
-9.44126e-06
6.97772e-06
-1.07621e-05
5.14971e-06
-1.18868e-05
3.12311e-06
-1.28384e-05
1.09442e-06
-1.36066e-05
-7.80278e-07
-1.41153e-05
-2.37549e-06
-3.60629e-06
-1.41781e-05
-8.73173e-07
3.55154e-06
-2.66804e-06
8.23619e-06
-4.72927e-06
1.05238e-05
-6.67657e-06
1.09225e-05
-8.35477e-06
1.00354e-05
-9.74622e-06
8.36916e-06
-1.08978e-05
6.30128e-06
-1.18698e-05
4.09514e-06
-1.2702e-05
1.92658e-06
-1.33895e-05
-9.27898e-08
-1.38639e-05
-1.90102e-06
-3.48766e-06
-1.39826e-05
-1.0785e-06
4.63004e-06
-3.08058e-06
1.02383e-05
-5.15051e-06
1.25937e-05
-6.89688e-06
1.26689e-05
-8.23543e-06
1.13739e-05
-9.2315e-06
9.36523e-06
-9.99805e-06
7.06783e-06
-1.06384e-05
4.73545e-06
-1.12169e-05
2.5051e-06
-1.17453e-05
4.35621e-07
-1.21759e-05
-1.47038e-06
-3.25883e-06
-1.24048e-05
-1.36975e-06
5.99979e-06
-3.51723e-06
1.23858e-05
-5.358e-06
1.44345e-05
-6.58375e-06
1.38947e-05
-7.26356e-06
1.20537e-05
-7.58924e-06
9.69091e-06
-7.75396e-06
7.23256e-06
-7.90338e-06
4.88487e-06
-8.12277e-06
2.72448e-06
-8.43865e-06
7.51503e-07
-8.82465e-06
-1.08439e-06
-2.87338e-06
-9.2101e-06
-1.79047e-06
7.79026e-06
-3.90424e-06
1.44995e-05
-5.09462e-06
1.56249e-05
-5.34282e-06
1.41428e-05
-4.98482e-06
1.16957e-05
-4.36804e-06
9.07413e-06
-3.7537e-06
6.61822e-06
-3.30521e-06
4.43639e-06
-3.10604e-06
2.52531e-06
-3.18199e-06
8.27454e-07
-3.51913e-06
-7.47249e-07
-2.31639e-06
-4.07612e-06
-2.31839e-06
1.01087e-05
-3.89976e-06
1.60809e-05
-3.71739e-06
1.54425e-05
-2.40126e-06
1.28267e-05
-6.44081e-07
9.93856e-06
1.08943e-06
7.34061e-06
2.53781e-06
5.16983e-06
3.57918e-06
3.39502e-06
4.17364e-06
1.93085e-06
4.32226e-06
6.78841e-07
4.04122e-06
-4.66212e-07
-1.6224e-06
3.34723e-06
-2.62357e-06
1.27322e-05
-2.38542e-06
1.58427e-05
2.66099e-07
1.2791e-05
3.68256e-06
9.41026e-06
6.94591e-06
6.67521e-06
9.67388e-06
4.61265e-06
1.17512e-05
3.09256e-06
1.31836e-05
1.96255e-06
1.40203e-05
1.09418e-06
1.43124e-05
3.86751e-07
1.40916e-05
-2.45466e-07
-8.8842e-07
1.33577e-05
-7.94637e-07
1.35269e-05
3.9941e-06
1.1054e-05
1.00537e-05
6.73133e-06
1.532e-05
4.14396e-06
1.93991e-05
2.59619e-06
2.23807e-05
1.63102e-06
2.44574e-05
1.01589e-06
2.5811e-05
6.08874e-07
2.65823e-05
3.22871e-07
2.68649e-05
1.04178e-07
2.67044e-05
-8.491e-08
-2.77779e-07
2.60937e-05
1.35269e-05
2.45809e-05
3.13122e-05
3.54562e-05
3.80523e-05
3.96834e-05
4.06993e-05
4.13081e-05
4.1631e-05
4.17352e-05
4.16503e-05
4.13725e-05
-4.59606e-06
-1.96428e-06
-3.48498e-06
-1.11108e-06
-2.63086e-06
-8.54116e-07
-1.82855e-06
-8.02314e-07
-1.05977e-06
-7.68778e-07
-4.09092e-07
-6.50679e-07
-2.42943e-08
-3.84798e-07
-2.42943e-08
-9.55329e-06
-3.07652e-06
-8.05759e-06
-2.60677e-06
-6.42073e-06
-2.49098e-06
-4.69484e-06
-2.5282e-06
-2.97534e-06
-2.48827e-06
-1.45145e-06
-2.17457e-06
-3.82098e-07
-1.45415e-06
-4.06392e-07
-1.22803e-05
-3.88981e-06
-1.08197e-05
-4.06734e-06
-8.93025e-06
-4.38046e-06
-6.7581e-06
-4.70035e-06
-4.47188e-06
-4.7745e-06
-2.33133e-06
-4.31512e-06
-6.99037e-07
-3.08645e-06
-1.10543e-06
-1.3552e-05
-4.51588e-06
-1.2262e-05
-5.35737e-06
-1.04162e-05
-6.22621e-06
-8.12878e-06
-6.98782e-06
-5.56531e-06
-7.33797e-06
-3.01554e-06
-6.86488e-06
-9.45521e-07
-5.15647e-06
-2.05095e-06
-1.35768e-05
-4.92168e-06
-1.25894e-05
-6.3447e-06
-1.1023e-05
-7.7926e-06
-8.90568e-06
-9.10516e-06
-6.33561e-06
-9.90804e-06
-3.57636e-06
-9.62413e-06
-1.17004e-06
-7.56279e-06
-3.22099e-06
-1.23027e-05
-5.02375e-06
-1.17705e-05
-6.8769e-06
-1.07229e-05
-8.84022e-06
-9.07827e-06
-1.07498e-05
-6.80994e-06
-1.21764e-05
-4.0753e-06
-1.23588e-05
-1.42352e-06
-1.02146e-05
-4.64451e-06
-9.49617e-06
-4.73769e-06
-9.57073e-06
-6.80233e-06
-9.28993e-06
-9.12102e-06
-8.46293e-06
-1.15768e-05
-6.89119e-06
-1.37481e-05
-4.51712e-06
-1.47328e-05
-1.75374e-06
-1.29779e-05
-6.39826e-06
-4.79096e-06
-4.02284e-06
-5.5741e-06
-6.0192e-06
-6.27334e-06
-8.42177e-06
-6.62827e-06
-1.12218e-05
-6.25862e-06
-1.41178e-05
-4.7716e-06
-1.62199e-05
-2.1847e-06
-1.55648e-05
-8.58295e-06
2.25369e-06
-2.9293e-06
7.8572e-07
-4.55123e-06
-9.71817e-07
-6.66423e-06
-2.78924e-06
-9.40442e-06
-4.18732e-06
-1.27197e-05
-4.3848e-06
-1.60224e-05
-2.62881e-06
-1.73208e-05
-1.12118e-05
1.2072e-05
-1.64365e-06
1.01653e-05
-2.64451e-06
7.57406e-06
-4.07301e-06
4.33497e-06
-6.16533e-06
7.76161e-07
-9.16088e-06
-2.15061e-06
-1.30956e-05
-2.63778e-06
-1.68336e-05
-1.38495e-05
2.49646e-05
-5.14576e-07
2.31745e-05
-8.54386e-07
2.0498e-05
-1.39646e-06
1.66487e-05
-2.31606e-06
1.14119e-05
-3.92405e-06
5.09016e-06
-6.77391e-06
-2.41503e-07
-1.1502e-05
-1.4091e-05
4.08579e-05
4.00035e-05
3.86071e-05
3.6291e-05
3.23669e-05
2.5593e-05
1.4091e-05
)
;

boundaryField
{
    lid
    {
        type            calculated;
        value           uniform 0;
    }
    fixedWalls
    {
        type            calculated;
        value           uniform 0;
    }
    frontAndBack
    {
        type            empty;
        value           nonuniform 0();
    }
}


// ************************************************************************* //
