/*--------------------------------*- C++ -*----------------------------------*\
| =========                 |                                                 |
| \\      /  F ield         | OpenFOAM: The Open Source CFD Toolbox           |
|  \\    /   O peration     | Version:  5.x                                   |
|   \\  /    A nd           | Web:      www.OpenFOAM.org                      |
|    \\/     M anipulation  |                                                 |
\*---------------------------------------------------------------------------*/
FoamFile
{
    version     2.0;
    format      ascii;
    class       volVectorField;
    location    "0.8";
    object      U;
}
// * * * * * * * * * * * * * * * * * * * * * * * * * * * * * * * * * * * * * //

dimensions      [0 1 -1 0 0 0 0];

internalField   nonuniform List<vector> 
336
(
(0.000119363 -0.00011435 0)
(0.000335042 -0.00012302 0)
(0.000434461 -5.179e-05 0)
(0.000373498 3.12924e-06 0)
(0.000253078 7.45942e-06 0)
(0.000212884 -3.23813e-05 0)
(0.000339123 -8.38199e-05 0)
(0.000613597 -0.000100789 0)
(0.000897091 -4.20827e-05 0)
(0.000969478 9.87991e-05 0)
(0.000689965 0.000247121 0)
(0.000228538 0.000208265 0)
(0.000168637 -0.000369417 0)
(0.000354807 -0.00030418 0)
(0.000183421 6.27339e-06 0)
(-0.000303598 0.000209128 0)
(-0.000843045 0.000174692 0)
(-0.00112509 -6.74499e-05 0)
(-0.000947025 -0.000374521 0)
(-0.000314145 -0.000543368 0)
(0.000519817 -0.0003893 0)
(0.00110836 0.000135017 0)
(0.001052 0.000769272 0)
(0.000413158 0.000779988 0)
(0.000107634 -0.00055314 0)
(-8.27816e-05 -0.000131979 0)
(-0.00102806 0.000634988 0)
(-0.00244922 0.00104266 0)
(-0.00384987 0.000834997 0)
(-0.00471724 8.97222e-05 0)
(-0.00468722 -0.000862333 0)
(-0.00368051 -0.00154333 0)
(-0.00198258 -0.00149157 0)
(-0.00023803 -0.000505519 0)
(0.00072809 0.000994637 0)
(0.000453912 0.0014917 0)
(-3.69957e-05 -0.000422364 0)
(-0.000944426 0.000874003 0)
(-0.00325263 0.00240014 0)
(-0.00627721 0.00305561 0)
(-0.00917546 0.00246143 0)
(-0.0111482 0.000774556 0)
(-0.0115809 -0.00142602 0)
(-0.0102077 -0.00328505 0)
(-0.00724415 -0.00389779 0)
(-0.00349242 -0.00266238 0)
(-0.000419295 0.000106287 0)
(0.000349816 0.0020004 0)
(-0.00027179 0.000266291 0)
(-0.0022849 0.00326052 0)
(-0.00665305 0.00600176 0)
(-0.0121021 0.00698397 0)
(-0.0173235 0.00572862 0)
(-0.0211455 0.00250501 0)
(-0.0226061 -0.00181509 0)
(-0.0211219 -0.00591445 0)
(-0.0166509 -0.00825818 0)
(-0.00994138 -0.0074516 0)
(-0.00321257 -0.00306761 0)
(-0.000184141 0.00187313 0)
(-0.000615124 0.00178457 0)
(-0.00418332 0.00765401 0)
(-0.0114085 0.0122665 0)
(-0.0202365 0.0137374 0)
(-0.0287902 0.0115369 0)
(-0.035473 0.006082 0)
(-0.0389157 -0.00145019 0)
(-0.0380981 -0.00926615 0)
(-0.0324455 -0.0150939 0)
(-0.0221324 -0.0163241 0)
(-0.00979684 -0.0106918 0)
(-0.00220906 -0.000276251 0)
(-0.00108382 0.00444759 0)
(-0.00669878 0.0147588 0)
(-0.01763 0.0221217 0)
(-0.0308545 0.0243669 0)
(-0.0438611 0.0210129 0)
(-0.0546508 0.0126803 0)
(-0.0614984 0.000828859 0)
(-0.0629593 -0.0123894 0)
(-0.0577342 -0.0241419 0)
(-0.0447147 -0.0306576 0)
(-0.0257368 -0.0270337 0)
(-0.00977235 -0.0101544 0)
(-0.00168531 0.00859479 0)
(-0.00983633 0.0253026 0)
(-0.0252778 0.0365064 0)
(-0.0438309 0.0399522 0)
(-0.0623275 0.0354023 0)
(-0.078487 0.0238178 0)
(-0.0904578 0.006967 0)
(-0.0967037 -0.0127884 0)
(-0.0956082 -0.032496 0)
(-0.0850487 -0.048242 0)
(-0.0648267 -0.054127 0)
(-0.0385829 -0.0382946 0)
(-0.00241484 0.0145527 0)
(-0.013531 0.0399424 0)
(-0.03411 0.0562118 0)
(-0.0586131 0.0613613 0)
(-0.0832057 0.0557354 0)
(-0.105489 0.0409261 0)
(-0.123807 0.0192341 0)
(-0.137097 -0.00661376 0)
(-0.144631 -0.0335198 0)
(-0.146167 -0.0578746 0)
(-0.144525 -0.0748975 0)
(-0.142648 -0.0741094 0)
(-0.0032635 0.0226003 0)
(-0.0176726 0.0591642 0)
(-0.0437178 0.0816861 0)
(-0.0742497 0.0889179 0)
(-0.104727 0.0822762 0)
(-0.13273 0.064396 0)
(-0.156914 0.0384502 0)
(-0.176733 0.00784707 0)
(-0.192173 -0.0237904 0)
(-0.203714 -0.0524548 0)
(-0.212849 -0.0730334 0)
(-0.218061 -0.0764465 0)
(-0.00424079 0.0329652 0)
(-0.0221804 0.0832267 0)
(-0.0536622 0.112891 0)
(-0.0896237 0.122158 0)
(-0.124793 0.11416 0)
(-0.156841 0.0930305 0)
(-0.184813 0.0630649 0)
(-0.208613 0.0284125 0)
(-0.228567 -0.00692275 0)
(-0.245065 -0.0389142 0)
(-0.258134 -0.0631381 0)
(-0.264918 -0.0742568 0)
(-0.00540965 0.0458761 0)
(-0.0270968 0.112177 0)
(-0.063604 0.149239 0)
(-0.103622 0.159745 0)
(-0.141249 0.149395 0)
(-0.174517 0.124316 0)
(-0.203083 0.0900839 0)
(-0.2274 0.0514763 0)
(-0.248111 0.0125468 0)
(-0.265515 -0.0231884 0)
(-0.278994 -0.0525785 0)
(-0.285758 -0.0730265 0)
(-0.00693754 0.0616872 0)
(-0.0326807 0.145904 0)
(-0.0733385 0.189522 0)
(-0.115073 0.199376 0)
(-0.151755 0.184897 0)
(-0.182325 0.154729 0)
(-0.207466 0.115797 0)
(-0.228441 0.0733123 0)
(-0.246381 0.0310734 0)
(-0.261755 -0.00820223 0)
(-0.273922 -0.0426682 0)
(-0.280624 -0.0714658 0)
(-0.0091729 0.0810887 0)
(-0.0394774 0.184137 0)
(-0.0826366 0.231684 0)
(-0.122341 0.237541 0)
(-0.153225 0.216392 0)
(-0.176067 0.179837 0)
(-0.19314 0.136022 0)
(-0.206789 0.0902529 0)
(-0.218784 0.0457519 0)
(-0.229943 0.00425681 0)
(-0.239921 -0.0336121 0)
(-0.247095 -0.0682527 0)
(-0.012726 0.105396 0)
(-0.0482398 0.226222 0)
(-0.090625 0.272252 0)
(-0.122292 0.269053 0)
(-0.140692 0.238241 0)
(-0.149742 0.194396 0)
(-0.153811 0.146323 0)
(-0.156393 0.0988296 0)
(-0.159814 0.0541574 0)
(-0.165174 0.0129128 0)
(-0.172442 -0.025422 0)
(-0.180574 -0.0622604 0)
(-0.0183685 0.136965 0)
(-0.0591879 0.270286 0)
(-0.0939804 0.305137 0)
(-0.108068 0.286332 0)
(-0.10532 0.243369 0)
(-0.0940636 0.192706 0)
(-0.0807424 0.142518 0)
(-0.0695375 0.0961917 0)
(-0.062811 0.0545296 0)
(-0.0615635 0.0169239 0)
(-0.0658413 -0.0181147 0)
(-0.0750367 -0.0527632 0)
(-0.0260255 0.180101 0)
(-0.0691719 0.310962 0)
(-0.0823444 0.319084 0)
(-0.06469 0.27832 0)
(-0.0313031 0.223492 0)
(0.00529328 0.169493 0)
(0.0379828 0.121666 0)
(0.0632414 0.0809045 0)
(0.0796777 0.0462616 0)
(0.0870532 0.0160554 0)
(0.0856348 -0.0118077 0)
(0.0758021 -0.0398301 0)
(-0.0299088 0.238958 0)
(-0.06289 0.332756 0)
(-0.0280511 0.294136 0)
(0.0385042 0.230741 0)
(0.108089 0.171285 0)
(0.168996 0.122393 0)
(0.217271 0.0841133 0)
(0.252249 0.0543621 0)
(0.274711 0.0307502 0)
(0.285798 0.0110912 0)
(0.28642 -0.00666961 0)
(0.276939 -0.0246959 0)
(0.00814662 0.28224 0)
(0.0191539 0.294275 0)
(0.136099 0.20875 0)
(0.257581 0.139872 0)
(0.352258 0.0925604 0)
(0.422111 0.0605741 0)
(0.471926 0.038923 0)
(0.5056 0.0239226 0)
(0.526364 0.0130307 0)
(0.536595 0.00451996 0)
(0.53771 -0.00291418 0)
(0.530129 -0.0104914 0)
(0.299834 0.146331 0)
(0.396607 0.127546 0)
(0.557059 0.0757787 0)
(0.672583 0.0430919 0)
(0.739749 0.0247119 0)
(0.780337 0.0142594 0)
(0.805816 0.00821088 0)
(0.821509 0.00458534 0)
(0.830484 0.00226743 0)
(0.834561 0.000630361 0)
(0.834691 -0.000716037 0)
(0.831137 -0.00209084 0)
(-0.104 -0.0271023 0)
(-0.0802238 -0.0118977 0)
(-0.0610056 -0.00734277 0)
(-0.0444563 -0.00620957 0)
(-0.0285837 -0.00573948 0)
(-0.0139321 -0.00469133 0)
(-0.0031339 -0.00242287 0)
(0.000432122 0.000436219 0)
(-0.203735 -0.0522781 0)
(-0.177328 -0.0366192 0)
(-0.145442 -0.0311361 0)
(-0.111418 -0.0300758 0)
(-0.0763043 -0.0289661 0)
(-0.0426729 -0.024738 0)
(-0.0157279 -0.0155463 0)
(-0.00238094 -0.00298924 0)
(-0.256947 -0.0703623 0)
(-0.233465 -0.0667551 0)
(-0.199167 -0.0678335 0)
(-0.157874 -0.0705775 0)
(-0.112283 -0.0702698 0)
(-0.0662551 -0.062209 0)
(-0.02693 -0.0429993 0)
(-0.00505827 -0.0139936 0)
(-0.280493 -0.0849566 0)
(-0.261021 -0.0953033 0)
(-0.229144 -0.106798 0)
(-0.187212 -0.116971 0)
(-0.137621 -0.12041 0)
(-0.0843245 -0.110346 0)
(-0.0359064 -0.0807373 0)
(-0.00720511 -0.0306653 0)
(-0.278253 -0.0956966 0)
(-0.264424 -0.118884 0)
(-0.238807 -0.142141 0)
(-0.201734 -0.162489 0)
(-0.154008 -0.173176 0)
(-0.0983804 -0.164514 0)
(-0.043917 -0.12603 0)
(-0.00934562 -0.0519014 0)
(-0.248896 -0.101244 0)
(-0.242962 -0.134877 0)
(-0.227547 -0.169502 0)
(-0.200947 -0.201687 0)
(-0.161533 -0.223235 0)
(-0.109387 -0.22079 0)
(-0.0523227 -0.177208 0)
(-0.0121275 -0.0778137 0)
(-0.187782 -0.0997548 0)
(-0.191958 -0.140146 0)
(-0.190656 -0.183992 0)
(-0.180549 -0.22819 0)
(-0.157197 -0.263826 0)
(-0.116469 -0.273898 0)
(-0.0620358 -0.232387 0)
(-0.0162775 -0.109516 0)
(-0.0880998 -0.0897427 0)
(-0.1036 -0.131834 0)
(-0.119329 -0.180648 0)
(-0.131367 -0.234647 0)
(-0.133007 -0.285961 0)
(-0.114919 -0.315646 0)
(-0.0724595 -0.288033 0)
(-0.022374 -0.149123 0)
(0.0578456 -0.0709846 0)
(0.0320233 -0.108589 0)
(-0.000864219 -0.155689 0)
(-0.0381237 -0.21351 0)
(-0.072982 -0.277938 0)
(-0.0921566 -0.332638 0)
(-0.078324 -0.336216 0)
(-0.0294944 -0.200157 0)
(0.256973 -0.0455391 0)
(0.225358 -0.0723835 0)
(0.180522 -0.109139 0)
(0.121692 -0.159954 0)
(0.0512874 -0.226973 0)
(-0.0199169 -0.30408 0)
(-0.0614258 -0.357625 0)
(-0.0297457 -0.263473 0)
(0.513138 -0.0196523 0)
(0.484658 -0.0324282 0)
(0.441041 -0.0519651 0)
(0.377099 -0.0831973 0)
(0.285899 -0.133318 0)
(0.16229 -0.210589 0)
(0.0368508 -0.307631 0)
(0.0176927 -0.298835 0)
(0.823455 -0.00386713 0)
(0.810245 -0.00663635 0)
(0.788653 -0.0114941 0)
(0.753261 -0.0205785 0)
(0.692111 -0.0380542 0)
(0.580246 -0.0715704 0)
(0.414751 -0.127192 0)
(0.30881 -0.149441 0)
)
;

boundaryField
{
    lid
    {
        type            fixedValue;
        value           uniform (1 0 0);
    }
    fixedWalls
    {
        type            noSlip;
    }
    frontAndBack
    {
        type            empty;
    }
}


// ************************************************************************* //
