/*--------------------------------*- C++ -*----------------------------------*\
| =========                 |                                                 |
| \\      /  F ield         | OpenFOAM: The Open Source CFD Toolbox           |
|  \\    /   O peration     | Version:  5.x                                   |
|   \\  /    A nd           | Web:      www.OpenFOAM.org                      |
|    \\/     M anipulation  |                                                 |
\*---------------------------------------------------------------------------*/
FoamFile
{
    version     2.0;
    format      ascii;
    class       volScalarField;
    location    "0.7";
    object      p;
}
// * * * * * * * * * * * * * * * * * * * * * * * * * * * * * * * * * * * * * //

dimensions      [0 2 -2 0 0 0 0];

internalField   nonuniform List<scalar> 
336
(
-6.82174e-06
-0.000857027
-0.00307356
-0.00597883
-0.00900817
-0.0120676
-0.0153982
-0.0193334
-0.0239833
-0.0288648
-0.0325917
-0.0336641
0.000767676
-0.000277995
-0.00249231
-0.0053823
-0.00857563
-0.0119952
-0.0157527
-0.0199949
-0.0247071
-0.0294808
-0.033229
-0.0345542
0.00349475
0.00153728
-0.0012216
-0.0044184
-0.0078673
-0.0115589
-0.0156346
-0.0202727
-0.0255242
-0.0311334
-0.0362742
-0.0393881
0.00813591
0.00444078
0.000614749
-0.00313044
-0.00686833
-0.0107196
-0.0149802
-0.0200389
-0.0261922
-0.0334928
-0.0416972
-0.049291
0.0142921
0.0079775
0.00263061
-0.0017804
-0.0057126
-0.00947645
-0.0136165
-0.0188801
-0.02598
-0.0355456
-0.0489146
-0.065514
0.0213037
0.0114442
0.00418104
-0.000878875
-0.00472067
-0.0078941
-0.0112657
-0.016077
-0.0236318
-0.0356056
-0.0572944
-0.0921221
0.0280758
0.0137408
0.00425944
-0.00126323
-0.00449225
-0.00623313
-0.00767537
-0.0105798
-0.0169346
-0.0303208
-0.0648622
-0.135874
0.0329055
0.013242
0.00138363
-0.0042252
-0.00607597
-0.00517603
-0.00283178
-0.000889171
-0.00136822
-0.0092778
-0.0482499
-0.151779
0.0333809
0.00770411
-0.00650485
-0.0116563
-0.0112434
-0.00640993
0.00176512
0.0122152
0.0246305
0.0378394
0.0451361
0.0743013
0.0263614
-0.00577205
-0.0220586
-0.0260465
-0.0225305
-0.0129308
0.0017691
0.0209139
0.0447592
0.0740327
0.109915
0.170751
0.00800286
-0.0307312
-0.0484085
-0.0501548
-0.0424999
-0.0273821
-0.00593416
0.0211765
0.0541063
0.0936353
0.141724
0.207152
-0.0263417
-0.0714316
-0.0890678
-0.0867165
-0.0732611
-0.0514173
-0.0226142
0.0123423
0.053447
0.101285
0.157278
0.225333
-0.0826083
-0.133119
-0.147898
-0.138192
-0.116158
-0.0855531
-0.048152
-0.00487336
0.0442188
0.0996033
0.162203
0.233592
-0.169368
-0.222639
-0.229047
-0.206359
-0.171277
-0.128763
-0.0808239
-0.0282962
0.0289304
0.0914642
0.160134
0.235783
-0.30091
-0.34948
-0.336586
-0.291468
-0.236596
-0.177832
-0.116906
-0.0540787
0.011387
0.0806385
0.154905
0.235301
-0.502913
-0.526892
-0.473518
-0.390923
-0.306928
-0.226735
-0.150494
-0.0768522
-0.0036961
0.0712169
0.150016
0.234706
-0.82282
-0.772129
-0.640011
-0.49831
-0.37364
-0.266918
-0.174192
-0.0906384
-0.0116398
0.0667763
0.148048
0.235411
-1.36994
-1.10547
-0.823692
-0.596631
-0.421227
-0.286125
-0.179287
-0.0896885
-0.00890441
0.0692184
0.149518
0.236422
-2.43959
-1.53464
-0.952812
-0.621687
-0.405399
-0.256519
-0.149551
-0.0654536
0.00806556
0.0786562
0.151685
0.231817
-4.27054
-1.95263
-0.887012
-0.480548
-0.275477
-0.153452
-0.0743209
-0.0144542
0.0390504
0.0928293
0.15078
0.215997
0.299766
0.451216
0.536278
0.591607
0.62175
0.624666
0.602855
0.570425
0.295245
0.406076
0.486129
0.542859
0.576753
0.58667
0.572025
0.538306
0.300137
0.390605
0.465754
0.52307
0.559857
0.57345
0.558461
0.513799
0.307712
0.390441
0.464433
0.524637
0.566338
0.584432
0.568241
0.511509
0.313593
0.395413
0.472764
0.540116
0.591392
0.618824
0.605826
0.540282
0.318069
0.403799
0.48899
0.568665
0.636089
0.680865
0.679351
0.610696
0.322311
0.415159
0.512132
0.609787
0.701852
0.775979
0.800431
0.740272
0.327093
0.428648
0.540356
0.661668
0.788777
0.909564
0.985273
0.960014
0.332258
0.44245
0.570447
0.720569
0.89466
1.08529
1.25474
1.32414
0.334823
0.451037
0.593866
0.775025
1.0065
1.295
1.63534
1.9521
0.324409
0.437168
0.582728
0.781592
1.06221
1.4718
2.14322
3.14812
0.292128
0.385326
0.50792
0.684778
0.963286
1.46887
2.64873
5.07897
)
;

boundaryField
{
    lid
    {
        type            zeroGradient;
    }
    fixedWalls
    {
        type            zeroGradient;
    }
    frontAndBack
    {
        type            empty;
    }
}


// ************************************************************************* //
