/*--------------------------------*- C++ -*----------------------------------*\
| =========                 |                                                 |
| \\      /  F ield         | OpenFOAM: The Open Source CFD Toolbox           |
|  \\    /   O peration     | Version:  5.x                                   |
|   \\  /    A nd           | Web:      www.OpenFOAM.org                      |
|    \\/     M anipulation  |                                                 |
\*---------------------------------------------------------------------------*/
FoamFile
{
    version     2.0;
    format      ascii;
    class       surfaceScalarField;
    location    "0.7";
    object      phi;
}
// * * * * * * * * * * * * * * * * * * * * * * * * * * * * * * * * * * * * * //

dimensions      [0 3 -1 0 0 0 0];

internalField   nonuniform List<scalar> 
632
(
1.05649e-08
-1.05077e-08
2.0084e-08
-9.51924e-09
2.09062e-08
-8.22095e-10
1.57861e-08
5.12029e-09
1.1353e-08
4.43316e-09
1.339e-08
-2.03713e-09
2.36857e-08
-1.02958e-08
3.83762e-08
-1.46905e-08
4.83961e-08
-1.002e-08
4.33571e-08
5.03862e-09
2.08175e-08
2.25389e-08
2.08168e-08
1.26067e-08
-2.31142e-08
1.42246e-08
-1.11373e-08
-2.43469e-09
1.58371e-08
-2.85415e-08
3.12271e-08
-4.9374e-08
2.52656e-08
-5.20279e-08
6.16359e-10
-3.15008e-08
-3.08236e-08
5.77814e-09
-5.19701e-08
4.24015e-08
-4.66438e-08
5.61886e-08
-8.74849e-09
3.45776e-08
4.415e-08
5.53938e-08
1.77467e-09
-2.48886e-08
-2.72037e-08
1.78411e-08
-8.66434e-08
7.52767e-08
-1.57468e-07
1.02051e-07
-2.14406e-07
8.22043e-08
-2.35398e-07
2.16081e-08
-2.0928e-07
-5.69424e-08
-1.4118e-07
-1.2007e-07
-5.42274e-08
-1.33598e-07
1.46415e-08
-7.76183e-08
3.03548e-08
2.84366e-08
8.57481e-08
-2.0174e-08
-4.71441e-09
-1.04601e-07
1.02269e-07
-2.38374e-07
2.09049e-07
-3.86527e-07
2.50204e-07
-5.08583e-07
2.0426e-07
-5.68866e-07
8.18911e-08
-5.45209e-07
-8.05998e-08
-4.36402e-07
-2.28877e-07
-2.68047e-07
-3.01953e-07
-9.54384e-08
-2.50228e-07
6.04434e-09
-7.30466e-08
9.17919e-08
-5.46224e-08
4.9908e-08
-2.23513e-07
2.71159e-07
-4.69622e-07
4.55159e-07
-7.36172e-07
5.16754e-07
-9.62635e-07
4.30723e-07
-1.09502e-06
2.14278e-07
-1.09438e-06
-8.12456e-08
-9.45356e-07
-3.77898e-07
-6.66932e-07
-5.80377e-07
-3.27972e-07
-5.89188e-07
-6.01013e-08
-3.40918e-07
3.16898e-08
-1.03779e-07
1.53687e-07
-3.90434e-07
5.57814e-07
-7.92713e-07
8.57438e-07
-1.2266e-06
9.50641e-07
-1.60803e-06
8.12149e-07
-1.86176e-06
4.68012e-07
-1.92749e-06
-1.5519e-08
-1.7663e-06
-5.39084e-07
-1.37279e-06
-9.73894e-07
-8.03617e-07
-1.15836e-06
-2.37685e-07
-9.0685e-07
-2.05996e-07
-1.69379e-07
3.23066e-07
-6.09651e-07
9.98087e-07
-1.21478e-06
1.46257e-06
-1.86925e-06
1.60511e-06
-2.46478e-06
1.40768e-06
-2.90663e-06
9.09856e-07
-3.1147e-06
1.92554e-07
-3.02307e-06
-6.30711e-07
-2.58338e-06
-1.41359e-06
-1.78525e-06
-1.95649e-06
-7.44744e-07
-1.94736e-06
-9.5074e-07
-2.5173e-07
5.74796e-07
-8.80324e-07
1.62668e-06
-1.73169e-06
2.31393e-06
-2.65565e-06
2.52907e-06
-3.52256e-06
2.27459e-06
-4.22669e-06
1.61398e-06
-4.68239e-06
6.48257e-07
-4.81582e-06
-4.97285e-07
-4.55348e-06
-1.67592e-06
-3.79927e-06
-2.71071e-06
-2.3572e-06
-3.38942e-06
-3.30794e-06
-3.49271e-07
9.24067e-07
-1.19483e-06
2.47224e-06
-2.32362e-06
3.44272e-06
-3.54738e-06
3.75284e-06
-4.71923e-06
3.44644e-06
-5.73427e-06
2.62902e-06
-6.52329e-06
1.43728e-06
-7.04526e-06
2.4685e-08
-7.28065e-06
-1.44053e-06
-7.22412e-06
-2.76724e-06
-6.90829e-06
-3.70526e-06
-3.65573e-06
-6.5605e-06
-4.59321e-07
1.38339e-06
-1.54034e-06
3.55326e-06
-2.95675e-06
4.85913e-06
-4.47676e-06
5.27284e-06
-5.93813e-06
4.90781e-06
-7.24233e-06
3.93322e-06
-8.34101e-06
2.53596e-06
-9.22176e-06
9.05437e-07
-9.89558e-06
-7.66713e-07
-1.03857e-05
-2.27713e-06
-1.07126e-05
-3.37837e-06
-3.70254e-06
-1.06658e-05
-5.80294e-07
1.96368e-06
-1.9041e-06
4.87707e-06
-3.5924e-06
6.54744e-06
-5.36354e-06
7.04398e-06
-7.04275e-06
6.58702e-06
-8.54256e-06
5.43303e-06
-9.8356e-06
3.829e-06
-1.09285e-05
1.99834e-06
-1.1838e-05
1.42769e-07
-1.25665e-05
-1.54861e-06
-1.30606e-05
-2.8843e-06
-3.6693e-06
-1.30938e-05
-7.14762e-07
2.67844e-06
-2.27919e-06
6.4415e-06
-4.19454e-06
8.46279e-06
-6.12606e-06
8.9755e-06
-7.89647e-06
8.35743e-06
-9.44136e-06
6.97791e-06
-1.07622e-05
5.14983e-06
-1.1887e-05
3.12315e-06
-1.28386e-05
1.09437e-06
-1.36068e-05
-7.80399e-07
-1.41155e-05
-2.37566e-06
-3.60647e-06
-1.41783e-05
-8.73171e-07
3.55161e-06
-2.66803e-06
8.23636e-06
-4.72926e-06
1.0524e-05
-6.67656e-06
1.09228e-05
-8.35477e-06
1.00356e-05
-9.74622e-06
8.36937e-06
-1.08978e-05
6.30141e-06
-1.18699e-05
4.09519e-06
-1.2702e-05
1.92655e-06
-1.33895e-05
-9.28891e-08
-1.3864e-05
-1.90117e-06
-3.48784e-06
-1.39827e-05
-1.07849e-06
4.6301e-06
-3.08055e-06
1.02384e-05
-5.15046e-06
1.25939e-05
-6.89681e-06
1.26691e-05
-8.23534e-06
1.13742e-05
-9.23141e-06
9.36543e-06
-9.99796e-06
7.06797e-06
-1.06383e-05
4.73551e-06
-1.12168e-05
2.50509e-06
-1.17453e-05
4.35544e-07
-1.21759e-05
-1.47051e-06
-3.25899e-06
-1.24048e-05
-1.36973e-06
5.99983e-06
-3.51719e-06
1.23859e-05
-5.35792e-06
1.44347e-05
-6.58363e-06
1.38949e-05
-7.2634e-06
1.20539e-05
-7.58906e-06
9.69108e-06
-7.75377e-06
7.23268e-06
-7.9032e-06
4.88494e-06
-8.1226e-06
2.72448e-06
-8.4385e-06
7.51446e-07
-8.82452e-06
-1.08449e-06
-2.87351e-06
-9.21e-06
-1.79046e-06
7.79029e-06
-3.90418e-06
1.44996e-05
-5.09452e-06
1.5625e-05
-5.34267e-06
1.4143e-05
-4.98462e-06
1.16959e-05
-4.3678e-06
9.07427e-06
-3.75344e-06
6.61832e-06
-3.30495e-06
4.43644e-06
-3.10578e-06
2.52531e-06
-3.18175e-06
8.27415e-07
-3.51891e-06
-7.47324e-07
-2.31649e-06
-4.07594e-06
-2.31838e-06
1.01087e-05
-3.89971e-06
1.60809e-05
-3.71729e-06
1.54426e-05
-2.40111e-06
1.28268e-05
-6.43875e-07
9.93867e-06
1.08968e-06
7.34071e-06
2.5381e-06
5.16991e-06
3.57948e-06
3.39506e-06
4.17394e-06
1.93086e-06
4.32254e-06
6.78817e-07
4.04148e-06
-4.66261e-07
-1.62246e-06
3.34745e-06
-2.62355e-06
1.27322e-05
-2.38538e-06
1.58428e-05
2.6618e-07
1.2791e-05
3.68269e-06
9.41031e-06
6.94609e-06
6.67526e-06
9.6741e-06
4.6127e-06
1.17514e-05
3.0926e-06
1.31839e-05
1.96258e-06
1.40206e-05
1.09418e-06
1.43126e-05
3.86738e-07
1.40919e-05
-2.45492e-07
-8.88455e-07
1.33579e-05
-7.94635e-07
1.35269e-05
3.99412e-06
1.1054e-05
1.00538e-05
6.73134e-06
1.53201e-05
4.14398e-06
1.93992e-05
2.5962e-06
2.23808e-05
1.63104e-06
2.44575e-05
1.0159e-06
2.58112e-05
6.08881e-07
2.65825e-05
3.22872e-07
2.68651e-05
1.04173e-07
2.67045e-05
-8.49185e-08
-2.7779e-07
2.60939e-05
1.35269e-05
2.45809e-05
3.13122e-05
3.54562e-05
3.80524e-05
3.96834e-05
4.06993e-05
4.13082e-05
4.16311e-05
4.17353e-05
4.16503e-05
4.13725e-05
-4.59615e-06
-1.96435e-06
-3.48503e-06
-1.11111e-06
-2.6309e-06
-8.54138e-07
-1.82857e-06
-8.02329e-07
-1.05978e-06
-7.68788e-07
-4.09093e-07
-6.50685e-07
-2.4293e-08
-3.848e-07
-2.42933e-08
-9.55347e-06
-3.07664e-06
-8.05772e-06
-2.60686e-06
-6.42082e-06
-2.49104e-06
-4.6949e-06
-2.52825e-06
-2.97537e-06
-2.48831e-06
-1.45146e-06
-2.1746e-06
-3.821e-07
-1.45416e-06
-4.06393e-07
-1.22805e-05
-3.88997e-06
-1.08199e-05
-4.06747e-06
-8.93036e-06
-4.38057e-06
-6.75818e-06
-4.70044e-06
-4.47192e-06
-4.77457e-06
-2.33135e-06
-4.31516e-06
-6.99043e-07
-3.08647e-06
-1.10544e-06
-1.35522e-05
-4.51606e-06
-1.22621e-05
-5.35753e-06
-1.04164e-05
-6.22635e-06
-8.12886e-06
-6.98794e-06
-5.56535e-06
-7.33807e-06
-3.01557e-06
-6.86495e-06
-9.45528e-07
-5.15651e-06
-2.05096e-06
-1.35769e-05
-4.92186e-06
-1.25895e-05
-6.34488e-06
-1.10231e-05
-7.79277e-06
-8.90573e-06
-9.1053e-06
-6.33564e-06
-9.90816e-06
-3.57637e-06
-9.62422e-06
-1.17004e-06
-7.56284e-06
-3.22101e-06
-1.23027e-05
-5.02393e-06
-1.17705e-05
-6.87707e-06
-1.07229e-05
-8.84038e-06
-9.07828e-06
-1.07499e-05
-6.80995e-06
-1.21765e-05
-4.0753e-06
-1.23589e-05
-1.42353e-06
-1.02146e-05
-4.64453e-06
-9.49609e-06
-4.73783e-06
-9.57067e-06
-6.80249e-06
-9.28989e-06
-9.12116e-06
-8.46291e-06
-1.15769e-05
-6.89117e-06
-1.37482e-05
-4.51711e-06
-1.47329e-05
-1.75374e-06
-1.2978e-05
-6.39827e-06
-4.79082e-06
-4.02295e-06
-5.57398e-06
-6.01932e-06
-6.27326e-06
-8.42188e-06
-6.62822e-06
-1.12219e-05
-6.25859e-06
-1.41179e-05
-4.77158e-06
-1.62199e-05
-2.18469e-06
-1.55649e-05
-8.58297e-06
2.25387e-06
-2.92938e-06
7.85865e-07
-4.55131e-06
-9.7171e-07
-6.66431e-06
-2.78917e-06
-9.40449e-06
-4.18727e-06
-1.27197e-05
-4.38478e-06
-1.60224e-05
-2.62881e-06
-1.73208e-05
-1.12118e-05
1.20722e-05
-1.64369e-06
1.01654e-05
-2.64455e-06
7.57417e-06
-4.07305e-06
4.33504e-06
-6.16536e-06
7.76203e-07
-9.16091e-06
-2.15059e-06
-1.30956e-05
-2.63777e-06
-1.68337e-05
-1.38495e-05
2.49648e-05
-5.14588e-07
2.31746e-05
-8.54398e-07
2.0498e-05
-1.39647e-06
1.66487e-05
-2.31607e-06
1.14119e-05
-3.92406e-06
5.09017e-06
-6.77392e-06
-2.415e-07
-1.1502e-05
-1.4091e-05
4.0858e-05
4.00036e-05
3.86071e-05
3.6291e-05
3.2367e-05
2.5593e-05
1.4091e-05
)
;

boundaryField
{
    lid
    {
        type            calculated;
        value           uniform 0;
    }
    fixedWalls
    {
        type            calculated;
        value           uniform 0;
    }
    frontAndBack
    {
        type            empty;
        value           nonuniform 0();
    }
}


// ************************************************************************* //
