/*--------------------------------*- C++ -*----------------------------------*\
| =========                 |                                                 |
| \\      /  F ield         | OpenFOAM: The Open Source CFD Toolbox           |
|  \\    /   O peration     | Version:  5.x                                   |
|   \\  /    A nd           | Web:      www.OpenFOAM.org                      |
|    \\/     M anipulation  |                                                 |
\*---------------------------------------------------------------------------*/
FoamFile
{
    version     2.0;
    format      ascii;
    class       volVectorField;
    location    "0.7";
    object      U;
}
// * * * * * * * * * * * * * * * * * * * * * * * * * * * * * * * * * * * * * //

dimensions      [0 1 -1 0 0 0 0];

internalField   nonuniform List<vector> 
336
(
(0.000119383 -0.000114352 0)
(0.000335092 -0.00012303 0)
(0.000434529 -5.17993e-05 0)
(0.000373579 3.12371e-06 0)
(0.000253168 7.45546e-06 0)
(0.00021298 -3.23855e-05 0)
(0.000339228 -8.38238e-05 0)
(0.000613713 -0.00010079 0)
(0.000897209 -4.20767e-05 0)
(0.000969579 9.88144e-05 0)
(0.000690026 0.000247141 0)
(0.000228555 0.000208279 0)
(0.000168661 -0.000369443 0)
(0.000354873 -0.000304222 0)
(0.000183508 6.24544e-06 0)
(-0.000303511 0.000209116 0)
(-0.000842966 0.000174684 0)
(-0.00112502 -6.74646e-05 0)
(-0.000946932 -0.000374542 0)
(-0.000314023 -0.000543384 0)
(0.000519963 -0.000389291 0)
(0.0011085 0.000135065 0)
(0.0010521 0.000769349 0)
(0.000413193 0.000780045 0)
(0.000107651 -0.0005532 0)
(-8.27497e-05 -0.000132042 0)
(-0.00102806 0.000634967 0)
(-0.00244929 0.00104268 0)
(-0.00385 0.00083501 0)
(-0.00471741 8.9705e-05 0)
(-0.00468738 -0.000862387 0)
(-0.00368061 -0.0015434 0)
(-0.00198259 -0.0014916 0)
(-0.000237975 -0.00050547 0)
(0.000728164 0.000994766 0)
(0.000453946 0.00149182 0)
(-3.6994e-05 -0.000422428 0)
(-0.000944469 0.000873984 0)
(-0.00325281 0.00240021 0)
(-0.00627756 0.00305574 0)
(-0.00917599 0.00246153 0)
(-0.0111488 0.00077457 0)
(-0.0115815 -0.00142612 0)
(-0.0102083 -0.00328523 0)
(-0.00724451 -0.00389795 0)
(-0.00349259 -0.00266244 0)
(-0.000419308 0.000106386 0)
(0.000349835 0.00200055 0)
(-0.00027181 0.000266272 0)
(-0.00228505 0.00326065 0)
(-0.00665347 0.00600206 0)
(-0.0121029 0.00698433 0)
(-0.0173246 0.00572891 0)
(-0.0211468 0.00250511 0)
(-0.0226074 -0.00181523 0)
(-0.0211231 -0.00591479 0)
(-0.0166518 -0.0082586 0)
(-0.00994192 -0.00745193 0)
(-0.00321275 -0.00306769 0)
(-0.000184157 0.00187325 0)
(-0.000615169 0.00178465 0)
(-0.00418359 0.00765443 0)
(-0.0114092 0.0122672 0)
(-0.0202378 0.0137381 0)
(-0.0287919 0.0115375 0)
(-0.035475 0.00608227 0)
(-0.0389178 -0.00145035 0)
(-0.0381002 -0.00926672 0)
(-0.0324472 -0.0150947 0)
(-0.0221335 -0.0163249 0)
(-0.00979733 -0.0106923 0)
(-0.00220916 -0.000276267 0)
(-0.00108389 0.00444784 0)
(-0.00669917 0.0147597 0)
(-0.017631 0.0221229 0)
(-0.0308562 0.0243682 0)
(-0.0438634 0.021014 0)
(-0.0546536 0.0126808 0)
(-0.0615014 0.00082873 0)
(-0.0629623 -0.0123903 0)
(-0.0577368 -0.0241433 0)
(-0.0447166 -0.0306592 0)
(-0.0257379 -0.027035 0)
(-0.00977271 -0.0101549 0)
(-0.0016854 0.00859528 0)
(-0.0098368 0.025304 0)
(-0.025279 0.0365083 0)
(-0.0438329 0.0399543 0)
(-0.0623303 0.0354041 0)
(-0.0784905 0.0238188 0)
(-0.0904617 0.00696704 0)
(-0.0967077 -0.0127895 0)
(-0.095612 -0.0324979 0)
(-0.0850519 -0.0482444 0)
(-0.0648289 -0.0541293 0)
(-0.038584 -0.038296 0)
(-0.00241494 0.0145535 0)
(-0.0135315 0.0399444 0)
(-0.0341112 0.0562146 0)
(-0.0586152 0.0613642 0)
(-0.0832087 0.055738 0)
(-0.105493 0.0409277 0)
(-0.123811 0.0192345 0)
(-0.137101 -0.00661471 0)
(-0.144636 -0.033522 0)
(-0.146171 -0.0578776 0)
(-0.144529 -0.0749008 0)
(-0.142651 -0.0741122 0)
(-0.00326359 0.0226013 0)
(-0.0176731 0.0591668 0)
(-0.0437189 0.0816897 0)
(-0.0742517 0.0889217 0)
(-0.10473 0.0822796 0)
(-0.132734 0.0643984 0)
(-0.156918 0.0384512 0)
(-0.176738 0.00784644 0)
(-0.192178 -0.0237925 0)
(-0.203719 -0.0524579 0)
(-0.212854 -0.0730369 0)
(-0.218066 -0.0764497 0)
(-0.00424086 0.0329664 0)
(-0.0221807 0.0832299 0)
(-0.053663 0.112895 0)
(-0.0896252 0.122163 0)
(-0.124795 0.114165 0)
(-0.156844 0.0930336 0)
(-0.184817 0.0630665 0)
(-0.208617 0.0284123 0)
(-0.228572 -0.00692448 0)
(-0.24507 -0.0389172 0)
(-0.258139 -0.0631417 0)
(-0.264923 -0.0742603 0)
(-0.00540968 0.0458775 0)
(-0.0270969 0.112181 0)
(-0.0636044 0.149244 0)
(-0.103622 0.15975 0)
(-0.14125 0.1494 0)
(-0.174519 0.12432 0)
(-0.203085 0.0900861 0)
(-0.227402 0.0514767 0)
(-0.248114 0.0125456 0)
(-0.265519 -0.023191 0)
(-0.278998 -0.0525819 0)
(-0.285762 -0.0730302 0)
(-0.00693752 0.0616886 0)
(-0.0326806 0.145907 0)
(-0.0733383 0.189527 0)
(-0.115073 0.199381 0)
(-0.151755 0.184902 0)
(-0.182325 0.154733 0)
(-0.207467 0.115799 0)
(-0.228441 0.0733132 0)
(-0.246383 0.0310726 0)
(-0.261756 -0.00820444 0)
(-0.273924 -0.0426714 0)
(-0.280626 -0.0714694 0)
(-0.00917282 0.08109 0)
(-0.0394771 0.18414 0)
(-0.0826358 0.231688 0)
(-0.122339 0.237546 0)
(-0.153223 0.216397 0)
(-0.176065 0.179841 0)
(-0.193139 0.136024 0)
(-0.206787 0.0902541 0)
(-0.218782 0.0457515 0)
(-0.229942 0.00425504 0)
(-0.239921 -0.0336149 0)
(-0.247095 -0.0682562 0)
(-0.0127259 0.105397 0)
(-0.0482392 0.226225 0)
(-0.0906238 0.272256 0)
(-0.12229 0.269057 0)
(-0.140689 0.238246 0)
(-0.149739 0.1944 0)
(-0.153807 0.146325 0)
(-0.15639 0.098831 0)
(-0.15981 0.0541574 0)
(-0.165171 0.0129115 0)
(-0.172439 -0.0254243 0)
(-0.180572 -0.0622633 0)
(-0.0183683 0.136966 0)
(-0.0591873 0.270288 0)
(-0.0939789 0.305141 0)
(-0.108065 0.286336 0)
(-0.105316 0.243373 0)
(-0.0940592 0.192709 0)
(-0.0807375 0.14252 0)
(-0.0695323 0.096193 0)
(-0.0628057 0.0545297 0)
(-0.0615584 0.016923 0)
(-0.0658367 -0.0181165 0)
(-0.0750328 -0.0527655 0)
(-0.0260253 0.180101 0)
(-0.0691713 0.310963 0)
(-0.0823429 0.319086 0)
(-0.0646875 0.278322 0)
(-0.0312995 0.223494 0)
(0.0052979 0.169496 0)
(0.0379882 0.121668 0)
(0.0632473 0.0809055 0)
(0.0796838 0.0462618 0)
(0.087059 0.0160548 0)
(0.0856402 -0.0118089 0)
(0.0758069 -0.0398318 0)
(-0.0299087 0.238958 0)
(-0.0628895 0.332757 0)
(-0.0280499 0.294137 0)
(0.0385063 0.230742 0)
(0.108092 0.171287 0)
(0.169 0.122394 0)
(0.217275 0.0841144 0)
(0.252255 0.0543628 0)
(0.274717 0.0307503 0)
(0.285804 0.0110908 0)
(0.286426 -0.00667033 0)
(0.276944 -0.0246969 0)
(0.00814662 0.28224 0)
(0.019154 0.294275 0)
(0.1361 0.20875 0)
(0.257583 0.139873 0)
(0.35226 0.092561 0)
(0.422114 0.0605747 0)
(0.47193 0.0389234 0)
(0.505604 0.0239229 0)
(0.526368 0.0130307 0)
(0.536599 0.0045198 0)
(0.537714 -0.00291449 0)
(0.530132 -0.0104918 0)
(0.299834 0.146331 0)
(0.396607 0.127546 0)
(0.557059 0.0757788 0)
(0.672583 0.0430921 0)
(0.73975 0.024712 0)
(0.780339 0.0142595 0)
(0.805817 0.00821097 0)
(0.821511 0.00458538 0)
(0.830486 0.00226743 0)
(0.834563 0.000630323 0)
(0.834693 -0.000716104 0)
(0.831138 -0.00209092 0)
(-0.104002 -0.0271033 0)
(-0.0802252 -0.0118981 0)
(-0.0610064 -0.00734297 0)
(-0.0444567 -0.00620968 0)
(-0.0285839 -0.00573955 0)
(-0.0139322 -0.00469136 0)
(-0.00313388 -0.00242288 0)
(0.000432143 0.000436237 0)
(-0.203739 -0.0522801 0)
(-0.177331 -0.0366204 0)
(-0.145444 -0.031137 0)
(-0.111419 -0.0300764 0)
(-0.0763051 -0.0289665 0)
(-0.0426733 -0.0247383 0)
(-0.015728 -0.0155464 0)
(-0.00238094 -0.00298923 0)
(-0.256951 -0.0703652 0)
(-0.233469 -0.0667573 0)
(-0.19917 -0.0678352 0)
(-0.157876 -0.0705788 0)
(-0.112284 -0.0702708 0)
(-0.0662557 -0.0622096 0)
(-0.0269302 -0.0429996 0)
(-0.00505831 -0.0139937 0)
(-0.280496 -0.08496 0)
(-0.261024 -0.0953063 0)
(-0.229146 -0.1068 0)
(-0.187213 -0.116974 0)
(-0.137622 -0.120412 0)
(-0.0843251 -0.110347 0)
(-0.0359066 -0.0807379 0)
(-0.00720516 -0.0306655 0)
(-0.278256 -0.0957003 0)
(-0.264426 -0.118887 0)
(-0.238809 -0.142144 0)
(-0.201735 -0.162491 0)
(-0.154009 -0.173178 0)
(-0.0983808 -0.164515 0)
(-0.0439172 -0.126031 0)
(-0.00934566 -0.0519017 0)
(-0.248896 -0.101247 0)
(-0.242962 -0.134881 0)
(-0.227547 -0.169505 0)
(-0.200948 -0.20169 0)
(-0.161534 -0.223237 0)
(-0.109388 -0.220792 0)
(-0.0523227 -0.177209 0)
(-0.0121275 -0.0778141 0)
(-0.18778 -0.0997581 0)
(-0.191957 -0.140149 0)
(-0.190655 -0.183995 0)
(-0.180548 -0.228193 0)
(-0.157196 -0.263828 0)
(-0.116468 -0.273899 0)
(-0.0620358 -0.232388 0)
(-0.0162775 -0.109516 0)
(-0.0880965 -0.0897454 0)
(-0.103598 -0.131836 0)
(-0.119327 -0.18065 0)
(-0.131365 -0.234649 0)
(-0.133006 -0.285963 0)
(-0.114919 -0.315647 0)
(-0.0724593 -0.288034 0)
(-0.0223739 -0.149123 0)
(0.0578497 -0.0709865 0)
(0.0320266 -0.108591 0)
(-0.000861719 -0.155691 0)
(-0.0381219 -0.213512 0)
(-0.0729809 -0.277939 0)
(-0.092156 -0.332639 0)
(-0.0783237 -0.336217 0)
(-0.0294943 -0.200157 0)
(0.256977 -0.0455402 0)
(0.225361 -0.0723846 0)
(0.180524 -0.10914 0)
(0.121694 -0.159955 0)
(0.0512885 -0.226974 0)
(-0.0199163 -0.30408 0)
(-0.0614256 -0.357625 0)
(-0.0297456 -0.263474 0)
(0.513141 -0.0196527 0)
(0.48466 -0.0324287 0)
(0.441043 -0.0519655 0)
(0.3771 -0.0831976 0)
(0.2859 -0.133318 0)
(0.16229 -0.210589 0)
(0.0368509 -0.307631 0)
(0.0176927 -0.298835 0)
(0.823456 -0.00386722 0)
(0.810246 -0.00663644 0)
(0.788653 -0.0114942 0)
(0.753261 -0.0205785 0)
(0.692111 -0.0380542 0)
(0.580246 -0.0715704 0)
(0.414751 -0.127192 0)
(0.30881 -0.149441 0)
)
;

boundaryField
{
    lid
    {
        type            fixedValue;
        value           uniform (1 0 0);
    }
    fixedWalls
    {
        type            noSlip;
    }
    frontAndBack
    {
        type            empty;
    }
}


// ************************************************************************* //
