/*--------------------------------*- C++ -*----------------------------------*\
| =========                 |                                                 |
| \\      /  F ield         | OpenFOAM: The Open Source CFD Toolbox           |
|  \\    /   O peration     | Version:  5.x                                   |
|   \\  /    A nd           | Web:      www.OpenFOAM.org                      |
|    \\/     M anipulation  |                                                 |
\*---------------------------------------------------------------------------*/
FoamFile
{
    version     2.0;
    format      ascii;
    class       volScalarField;
    location    "17.5";
    object      epsilon;
}
// * * * * * * * * * * * * * * * * * * * * * * * * * * * * * * * * * * * * * //

dimensions      [0 2 -3 0 0 0 0];

internalField   nonuniform List<scalar> 
400
(
3.09719e-05
9.78796e-05
0.000360316
0.00069818
0.000922451
0.00109602
0.00123554
0.00136945
0.00148629
0.00160549
0.0017166
0.00183368
0.00194633
0.00201404
0.00204261
0.00202908
0.00185745
0.0014245
0.000874729
0.000615142
0.000132947
0.000351045
0.000861823
0.00112587
0.0011826
0.0012034
0.00120862
0.00124516
0.00129263
0.00138087
0.00149516
0.00164686
0.00182709
0.00203815
0.00226409
0.0024662
0.00255423
0.00251302
0.00196381
0.0012818
0.000412514
0.000979081
0.00118618
0.0012085
0.00116611
0.00114207
0.00112438
0.00114358
0.001203
0.00127853
0.00137314
0.00148453
0.00161836
0.0017814
0.00197657
0.002202
0.00237397
0.00243508
0.00221409
0.00167495
0.000861385
0.00126218
0.00126959
0.00116987
0.00108222
0.00102713
0.00100981
0.00100942
0.0010361
0.0010681
0.00111887
0.0011929
0.00130322
0.00145988
0.00167939
0.00196502
0.00226154
0.00239335
0.00232576
0.00192842
0.0011797
0.00141536
0.00124131
0.00107376
0.000953248
0.000888805
0.000847205
0.000817117
0.000800373
0.000793728
0.000804565
0.00085367
0.00094868
0.00110912
0.00136032
0.0017223
0.00217862
0.00243944
0.00247399
0.00211799
0.00135181
0.00140943
0.00116621
0.000954435
0.000831225
0.000751297
0.000682758
0.000620656
0.00056793
0.000538006
0.00052804
0.000549919
0.00063092
0.000783502
0.00104859
0.00147049
0.00206727
0.00255111
0.00267611
0.00227094
0.001381
0.00136063
0.00105952
0.000849228
0.000724219
0.00062959
0.0005408
0.000458307
0.000388982
0.000346538
0.000329627
0.00033161
0.000391706
0.000520176
0.000768388
0.0012133
0.00192743
0.00267449
0.00291518
0.00239346
0.00136185
0.00125681
0.000960033
0.000761342
0.00063719
0.000533709
0.000434443
0.00034468
0.000273059
0.000228995
0.00021001
0.000207377
0.000245276
0.000340628
0.000548924
0.000973201
0.00174792
0.00278346
0.00322106
0.00249527
0.00131262
0.00113946
0.000872733
0.000692199
0.000571634
0.000465275
0.000363835
0.00027516
0.00020773
0.000167826
0.000151025
0.000148844
0.000174329
0.000241342
0.000402093
0.000782731
0.00158014
0.00284336
0.00352479
0.00257061
0.00121889
0.0010353
0.000801124
0.000639277
0.000524993
0.000421407
0.000322756
0.000238453
0.00017715
0.000141356
0.000126473
0.000126029
0.000144848
0.000195131
0.000319281
0.000644033
0.00143851
0.00288234
0.00385413
0.00263193
0.00111839
0.000949506
0.000744649
0.000602062
0.000495439
0.000396233
0.000304132
0.000228338
0.00017288
0.000138395
0.000121545
0.000121359
0.000136385
0.000178097
0.000281536
0.000561827
0.00131743
0.00291742
0.00415616
0.0026693
0.00102765
0.000891121
0.000706391
0.000576743
0.000477581
0.000388817
0.000305572
0.000233432
0.000180106
0.000146397
0.00012956
0.00012967
0.000140646
0.000175671
0.000269837
0.000525384
0.00124494
0.00296619
0.00443235
0.00269383
0.000932747
0.000851436
0.000684808
0.000568945
0.000478375
0.00039343
0.000314948
0.00024838
0.000198778
0.000166375
0.000148893
0.000149344
0.000159726
0.000192139
0.000276567
0.000515276
0.00121567
0.00303026
0.0046269
0.00270525
0.000839883
0.00083027
0.000693524
0.000577071
0.000488598
0.000408263
0.000336584
0.000276736
0.00023041
0.000198997
0.000179846
0.000180257
0.000190632
0.00022365
0.000308916
0.000539907
0.00121375
0.00312527
0.00472414
0.00271062
0.000739656
0.000805197
0.000713748
0.000602044
0.000515751
0.000439164
0.000371471
0.000315292
0.00027158
0.000241785
0.000222006
0.000222768
0.000234278
0.000270542
0.000362592
0.000605331
0.00128385
0.00327425
0.00475955
0.00264666
0.000628787
0.000794824
0.000757174
0.000664895
0.000578238
0.000502389
0.000434384
0.00037717
0.000331695
0.0003008
0.000279387
0.000280887
0.000295338
0.000339438
0.000448285
0.000724793
0.00143218
0.00347138
0.00459872
0.00253923
0.00051646
0.000752838
0.000777772
0.000746485
0.000681083
0.000608534
0.000538004
0.000476149
0.000426242
0.000390914
0.00037049
0.000374955
0.00039802
0.00046307
0.000614664
0.000980764
0.00177268
0.00374198
0.00423898
0.00239288
0.000349443
0.000659448
0.000857606
0.00092464
0.000908067
0.000852391
0.000773744
0.000700954
0.000644765
0.000603528
0.00060163
0.000622498
0.000681949
0.00082449
0.00111701
0.0017667
0.00272552
0.00415133
0.00406444
0.00220823
0.000352313
0.000650114
0.00106498
0.00128336
0.00136265
0.00136217
0.00134281
0.00132074
0.00133139
0.00137584
0.00147386
0.00167341
0.00195252
0.0024102
0.00301627
0.00392357
0.00477611
0.00469264
0.00412028
0.00196669
0.000256163
0.000389115
0.000685749
0.000982805
0.00120416
0.00135719
0.00144051
0.00149599
0.00152034
0.00153889
0.00154496
0.00155598
0.00156527
0.00158576
0.00160406
0.00165712
0.00172922
0.00181979
0.0018017
0.00160719
)
;

boundaryField
{
    movingWall
    {
        Cmu             0.09;
        kappa           0.41;
        E               9.8;
        type            epsilonWallFunction;
        value           nonuniform List<scalar> 
20
(
0.000256163
0.000389115
0.000685749
0.000982805
0.00120416
0.00135719
0.00144051
0.00149599
0.00152034
0.00153889
0.00154496
0.00155598
0.00156527
0.00158576
0.00160406
0.00165712
0.00172922
0.00181979
0.0018017
0.00160719
)
;
    }
    fixedWalls
    {
        Cmu             0.09;
        kappa           0.41;
        E               9.8;
        type            epsilonWallFunction;
        value           nonuniform List<scalar> 
60
(
3.09719e-05
0.000132947
0.000412514
0.000861385
0.0011797
0.00135181
0.001381
0.00136185
0.00131262
0.00121889
0.00111839
0.00102765
0.000932747
0.000839883
0.000739656
0.000628787
0.00051646
0.000349443
0.000352313
0.000256163
0.000615142
0.0012818
0.00167495
0.00192842
0.00211799
0.00227094
0.00239346
0.00249527
0.00257061
0.00263193
0.0026693
0.00269383
0.00270525
0.00271062
0.00264666
0.00253923
0.00239288
0.00220823
0.00196669
0.00160719
3.09719e-05
9.78796e-05
0.000360316
0.00069818
0.000922451
0.00109602
0.00123554
0.00136945
0.00148629
0.00160549
0.0017166
0.00183368
0.00194633
0.00201404
0.00204261
0.00202908
0.00185745
0.0014245
0.000874729
0.000615142
)
;
    }
    frontAndBack
    {
        type            empty;
    }
}


// ************************************************************************* //
