/*--------------------------------*- C++ -*----------------------------------*\
| =========                 |                                                 |
| \\      /  F ield         | OpenFOAM: The Open Source CFD Toolbox           |
|  \\    /   O peration     | Version:  5.x                                   |
|   \\  /    A nd           | Web:      www.OpenFOAM.org                      |
|    \\/     M anipulation  |                                                 |
\*---------------------------------------------------------------------------*/
FoamFile
{
    version     2.0;
    format      ascii;
    class       volScalarField;
    location    "17.5";
    object      k;
}
// * * * * * * * * * * * * * * * * * * * * * * * * * * * * * * * * * * * * * //

dimensions      [0 2 -2 0 0 0 0];

internalField   nonuniform List<scalar> 
400
(
9.67948e-06
3.05905e-05
0.000112606
0.000218191
0.000288276
0.000342518
0.00038612
0.000427966
0.000464481
0.000501731
0.000536454
0.00057304
0.000608246
0.000629404
0.000638331
0.000634103
0.000580469
0.000445166
0.000273361
0.000192239
4.1549e-05
0.000137827
0.000283751
0.000442687
0.000511896
0.000591125
0.000638066
0.000705017
0.000760666
0.000826474
0.000889434
0.000955529
0.00101463
0.00107891
0.00112938
0.00115248
0.00115393
0.00100886
0.000665626
0.000400574
0.000128918
0.00041303
0.000566295
0.000651815
0.000704379
0.000753836
0.000789888
0.000839429
0.0008833
0.00093486
0.000982916
0.00103208
0.00107984
0.00113186
0.00117958
0.00120846
0.00121738
0.00114656
0.000820256
0.000523437
0.000269191
0.000625558
0.000709313
0.00074622
0.000771013
0.000791358
0.00081481
0.000846446
0.000876944
0.000909657
0.000939339
0.000976269
0.00102372
0.00108315
0.00115335
0.00121379
0.00123856
0.00122359
0.000964885
0.000602649
0.000368665
0.000742298
0.000768478
0.000768669
0.000771561
0.000783896
0.000796076
0.000802484
0.000802477
0.000799675
0.000806142
0.000833891
0.000883736
0.000960578
0.0010678
0.00119604
0.00127167
0.00128751
0.00108908
0.000661895
0.000422452
0.000778553
0.000779558
0.000764799
0.000759768
0.000755161
0.000735462
0.000701897
0.000669675
0.000652001
0.00064646
0.000662286
0.000712565
0.000800946
0.000938164
0.00112426
0.00129395
0.00135391
0.00121735
0.000709695
0.000431575
0.000771483
0.000772914
0.000750616
0.000729417
0.000697568
0.000651686
0.000597129
0.000548973
0.000519038
0.000507335
0.000511937
0.000556741
0.000644895
0.000794642
0.00102164
0.00129902
0.00142816
0.00133864
0.000747985
0.000425591
0.000751809
0.000754909
0.000722209
0.000689642
0.000642006
0.00058
0.000514097
0.000458442
0.000422901
0.000408141
0.000407395
0.000442973
0.000521654
0.000665668
0.000907992
0.00125801
0.00149468
0.00147194
0.000779804
0.000410208
0.000712453
0.000722906
0.000691723
0.000653469
0.000597446
0.000527884
0.000458113
0.000401231
0.000364856
0.000349284
0.000347838
0.000374985
0.000439834
0.000569427
0.000807359
0.00119295
0.00155587
0.00158866
0.000803354
0.000380915
0.000676249
0.000691078
0.000663992
0.000624795
0.000566278
0.000495599
0.000426547
0.000371849
0.000336611
0.00032117
0.000321121
0.00034339
0.000397662
0.000508941
0.000730747
0.00112761
0.00160377
0.00170717
0.000822505
0.000349509
0.000631662
0.000657341
0.00063871
0.000602227
0.000546873
0.000479286
0.00041579
0.000364949
0.000330646
0.000313285
0.000313931
0.000332896
0.000380323
0.000480196
0.000684759
0.00107657
0.00163801
0.00180721
0.00083418
0.00032115
0.00059194
0.000630284
0.000620082
0.000588397
0.000537384
0.000478796
0.000419199
0.000370551
0.000337207
0.00031984
0.000320397
0.000334825
0.000376925
0.000470711
0.000664185
0.00104653
0.00166828
0.00189448
0.000841919
0.000291494
0.000543882
0.000601591
0.000600576
0.000580385
0.000538176
0.000484161
0.00043042
0.00038613
0.000354904
0.000338087
0.000339361
0.000353036
0.000391822
0.000477584
0.000659524
0.00103349
0.00169613
0.00193789
0.000845411
0.000262474
0.000509173
0.00058468
0.000589273
0.00057821
0.000544947
0.000497904
0.000452195
0.000412987
0.000384225
0.000367775
0.000369492
0.000383253
0.000421622
0.00050561
0.000680073
0.00103185
0.00172468
0.00195364
0.000847113
0.000231153
0.000460821
0.000559958
0.00058509
0.000581051
0.000560733
0.000521398
0.000481867
0.000447712
0.000422171
0.000407128
0.000409429
0.000423782
0.000462763
0.000546862
0.000721531
0.00105534
0.00175044
0.00194986
0.000827128
0.000196506
0.000426591
0.000546679
0.00058984
0.00059408
0.000585177
0.000560558
0.00052644
0.000495213
0.000471142
0.000455994
0.000458583
0.000473685
0.000514309
0.000600858
0.000783673
0.00110052
0.00176306
0.00185877
0.00079355
0.000161404
0.000368984
0.000513844
0.00059901
0.000625775
0.000623811
0.000610623
0.000582914
0.000554119
0.000530916
0.000517045
0.000520986
0.000539069
0.000585723
0.000681307
0.000888308
0.00120041
0.00176625
0.00172299
0.000747816
0.000109208
0.000307454
0.000520765
0.000645506
0.000721259
0.000729274
0.00072113
0.000699459
0.000668052
0.000642217
0.000635814
0.000645867
0.000676285
0.000749381
0.000877576
0.00115082
0.00146701
0.00176419
0.0015633
0.000690105
0.000110102
0.000320191
0.000554779
0.000697926
0.000781628
0.000822802
0.000839234
0.000856295
0.000872507
0.000904898
0.000950194
0.00103082
0.00113508
0.00130098
0.00149693
0.00179108
0.00193394
0.00182845
0.00146268
0.000614619
8.00542e-05
0.000121603
0.000214304
0.000307138
0.000376316
0.000424138
0.000450177
0.000467517
0.000475128
0.000480925
0.000482821
0.000486265
0.000489169
0.000495572
0.000501292
0.000517876
0.000540406
0.000568711
0.000563057
0.000502273
)
;

boundaryField
{
    movingWall
    {
        type            kqRWallFunction;
        value           nonuniform List<scalar> 
20
(
8.00542e-05
0.000121603
0.000214304
0.000307138
0.000376316
0.000424138
0.000450177
0.000467517
0.000475128
0.000480925
0.000482821
0.000486265
0.000489169
0.000495572
0.000501292
0.000517876
0.000540406
0.000568711
0.000563057
0.000502273
)
;
    }
    fixedWalls
    {
        type            kqRWallFunction;
        value           nonuniform List<scalar> 
60
(
9.67948e-06
4.1549e-05
0.000128918
0.000269191
0.000368665
0.000422452
0.000431575
0.000425591
0.000410208
0.000380915
0.000349509
0.00032115
0.000291494
0.000262474
0.000231153
0.000196506
0.000161404
0.000109208
0.000110102
8.00542e-05
0.000192239
0.000400574
0.000523437
0.000602649
0.000661895
0.000709695
0.000747985
0.000779804
0.000803354
0.000822505
0.00083418
0.000841919
0.000845411
0.000847113
0.000827128
0.00079355
0.000747816
0.000690105
0.000614619
0.000502273
9.67948e-06
3.05905e-05
0.000112606
0.000218191
0.000288276
0.000342518
0.00038612
0.000427966
0.000464481
0.000501731
0.000536454
0.00057304
0.000608246
0.000629404
0.000638331
0.000634103
0.000580469
0.000445166
0.000273361
0.000192239
)
;
    }
    frontAndBack
    {
        type            empty;
    }
}


// ************************************************************************* //
