/*--------------------------------*- C++ -*----------------------------------*\
| =========                 |                                                 |
| \\      /  F ield         | OpenFOAM: The Open Source CFD Toolbox           |
|  \\    /   O peration     | Version:  5.x                                   |
|   \\  /    A nd           | Web:      www.OpenFOAM.org                      |
|    \\/     M anipulation  |                                                 |
\*---------------------------------------------------------------------------*/
FoamFile
{
    version     2.0;
    format      ascii;
    class       volScalarField;
    location    "17.5";
    object      nut;
}
// * * * * * * * * * * * * * * * * * * * * * * * * * * * * * * * * * * * * * //

dimensions      [0 2 -1 0 0 0 0];

internalField   nonuniform List<scalar> 
400
(
2.72257e-07
8.60445e-07
3.16726e-06
6.13688e-06
8.10807e-06
9.63364e-06
1.086e-05
1.20369e-05
1.30639e-05
1.41116e-05
1.50882e-05
1.61172e-05
1.71074e-05
1.77024e-05
1.79535e-05
1.78346e-05
1.63261e-05
1.25206e-05
7.68852e-06
5.40689e-06
1.16865e-06
4.87024e-06
8.4081e-06
1.56657e-05
1.9942e-05
2.6133e-05
3.03169e-05
3.59267e-05
4.02863e-05
4.45192e-05
4.76191e-05
4.98969e-05
5.07108e-05
5.14015e-05
5.07025e-05
4.84706e-05
4.69182e-05
3.64512e-05
2.0305e-05
1.12665e-05
3.62601e-06
1.56815e-05
2.43319e-05
3.16404e-05
3.82925e-05
4.4782e-05
4.99413e-05
5.54553e-05
5.83702e-05
6.15212e-05
6.33228e-05
6.45773e-05
6.48469e-05
6.47237e-05
6.33557e-05
5.9688e-05
5.61849e-05
4.85872e-05
2.73494e-05
1.47221e-05
7.57124e-06
2.79035e-05
3.56661e-05
4.28388e-05
4.94367e-05
5.48735e-05
5.9172e-05
6.38809e-05
6.6801e-05
6.97243e-05
7.09757e-05
7.19079e-05
7.23741e-05
7.23276e-05
7.12881e-05
6.74785e-05
6.10483e-05
5.62999e-05
3.6027e-05
1.695e-05
1.03689e-05
3.50374e-05
4.28179e-05
4.95239e-05
5.62053e-05
6.22232e-05
6.73229e-05
7.09301e-05
7.24129e-05
7.25099e-05
7.26949e-05
7.33113e-05
7.40914e-05
7.48738e-05
7.54361e-05
7.4752e-05
6.68054e-05
6.11582e-05
4.31482e-05
1.86164e-05
1.18818e-05
3.87057e-05
4.68989e-05
5.51557e-05
6.25009e-05
6.83139e-05
7.13011e-05
7.14395e-05
7.10683e-05
7.11136e-05
7.12293e-05
7.17852e-05
7.24299e-05
7.36901e-05
7.55427e-05
7.73592e-05
7.28915e-05
6.46684e-05
4.98395e-05
1.99609e-05
1.21384e-05
3.9369e-05
5.07452e-05
5.97109e-05
6.61187e-05
6.95598e-05
7.06777e-05
7.002e-05
6.97294e-05
6.99664e-05
7.02763e-05
7.1129e-05
7.12178e-05
7.19566e-05
7.39613e-05
7.74229e-05
7.87941e-05
6.86361e-05
5.53226e-05
2.10379e-05
1.19701e-05
4.04749e-05
5.34252e-05
6.16578e-05
6.7177e-05
6.9505e-05
6.96893e-05
6.90109e-05
6.92715e-05
7.02901e-05
7.13876e-05
7.20298e-05
7.20013e-05
7.18998e-05
7.26515e-05
7.62437e-05
8.1487e-05
7.22359e-05
6.05374e-05
2.19329e-05
1.15375e-05
4.00919e-05
5.38921e-05
6.22122e-05
6.72318e-05
6.90448e-05
6.89311e-05
6.8644e-05
6.9748e-05
7.13885e-05
7.27025e-05
7.31586e-05
7.25941e-05
7.21417e-05
7.25758e-05
7.49485e-05
8.10576e-05
7.66227e-05
6.44422e-05
2.25954e-05
1.07136e-05
3.97548e-05
5.36534e-05
6.20696e-05
6.69213e-05
6.84858e-05
6.84903e-05
6.86712e-05
7.02483e-05
7.21413e-05
7.3403e-05
7.36391e-05
7.32665e-05
7.29364e-05
7.30138e-05
7.46224e-05
7.95507e-05
8.03119e-05
6.80568e-05
2.31337e-05
9.83028e-06
3.78194e-05
5.22243e-05
6.09829e-05
6.58829e-05
6.79306e-05
6.7978e-05
6.81415e-05
6.93365e-05
7.10964e-05
7.2675e-05
7.30872e-05
7.31295e-05
7.30956e-05
7.37133e-05
7.51129e-05
7.91773e-05
8.27703e-05
7.0724e-05
2.3462e-05
9.03267e-06
3.53885e-05
5.06139e-05
6.00011e-05
6.52433e-05
6.68447e-05
6.75197e-05
6.7752e-05
6.86138e-05
6.99046e-05
7.10616e-05
7.12491e-05
7.1738e-05
7.27869e-05
7.3901e-05
7.5569e-05
7.91775e-05
8.44462e-05
7.28765e-05
2.36817e-05
8.19857e-06
3.1268e-05
4.75638e-05
5.70569e-05
6.33734e-05
6.62556e-05
6.69859e-05
6.71292e-05
6.75057e-05
6.8136e-05
6.90913e-05
6.94031e-05
7.02272e-05
7.19126e-05
7.42235e-05
7.59738e-05
7.90746e-05
8.54437e-05
7.30484e-05
2.37778e-05
7.38235e-06
2.81031e-05
4.43627e-05
5.4156e-05
6.15833e-05
6.54652e-05
6.62889e-05
6.65011e-05
6.66215e-05
6.67678e-05
6.76871e-05
6.81651e-05
6.93453e-05
7.15353e-05
7.4479e-05
7.70966e-05
7.89495e-05
8.56589e-05
7.27127e-05
2.38264e-05
6.50146e-06
2.37359e-05
3.95375e-05
5.11752e-05
5.89157e-05
6.44359e-05
6.58651e-05
6.62802e-05
6.64266e-05
6.63422e-05
6.71955e-05
6.77246e-05
6.89913e-05
7.12402e-05
7.423e-05
7.74033e-05
7.80761e-05
8.42217e-05
7.18926e-05
2.32643e-05
5.527e-06
2.06061e-05
3.55231e-05
4.70932e-05
5.49321e-05
6.13446e-05
6.51044e-05
6.61305e-05
6.65408e-05
6.64151e-05
6.69814e-05
6.73823e-05
6.83756e-05
7.01343e-05
7.24824e-05
7.62602e-05
7.611e-05
8.05886e-05
6.76169e-05
2.23197e-05
4.53976e-06
1.62763e-05
3.0553e-05
4.32603e-05
5.17462e-05
5.75524e-05
6.23739e-05
6.42258e-05
6.48325e-05
6.48953e-05
6.49415e-05
6.51501e-05
6.57092e-05
6.66777e-05
6.79659e-05
7.24111e-05
7.31593e-05
7.5032e-05
6.30299e-05
2.10334e-05
3.07169e-06
1.29009e-05
2.84602e-05
4.05575e-05
5.15594e-05
5.61545e-05
6.04885e-05
6.2817e-05
6.22962e-05
6.15047e-05
6.04747e-05
6.03102e-05
6.03602e-05
6.13003e-05
6.20521e-05
6.74674e-05
7.10652e-05
6.74757e-05
5.41158e-05
1.94101e-05
3.09675e-06
1.41929e-05
2.60101e-05
3.41596e-05
4.03514e-05
4.47301e-05
4.72056e-05
4.99658e-05
5.14604e-05
5.35643e-05
5.51331e-05
5.71484e-05
5.9388e-05
6.32016e-05
6.6861e-05
7.35856e-05
7.04782e-05
6.41199e-05
4.67317e-05
1.7287e-05
2.25162e-06
3.4202e-06
6.02752e-06
8.63857e-06
1.05843e-05
1.19294e-05
1.26618e-05
1.31495e-05
1.33636e-05
1.35266e-05
1.358e-05
1.36768e-05
1.37585e-05
1.39386e-05
1.40995e-05
1.4566e-05
1.51996e-05
1.59958e-05
1.58367e-05
1.41271e-05
)
;

boundaryField
{
    movingWall
    {
        type            nutkWallFunction;
        Cmu             0.09;
        kappa           0.41;
        E               9.8;
        value           uniform 0;
    }
    fixedWalls
    {
        type            nutkWallFunction;
        Cmu             0.09;
        kappa           0.41;
        E               9.8;
        value           uniform 0;
    }
    frontAndBack
    {
        type            empty;
    }
}


// ************************************************************************* //
