/*--------------------------------*- C++ -*----------------------------------*\
| =========                 |                                                 |
| \\      /  F ield         | OpenFOAM: The Open Source CFD Toolbox           |
|  \\    /   O peration     | Version:  5.x                                   |
|   \\  /    A nd           | Web:      www.OpenFOAM.org                      |
|    \\/     M anipulation  |                                                 |
\*---------------------------------------------------------------------------*/
FoamFile
{
    version     2.0;
    format      ascii;
    class       volScalarField;
    location    "17.5";
    object      p;
}
// * * * * * * * * * * * * * * * * * * * * * * * * * * * * * * * * * * * * * //

dimensions      [0 2 -2 0 0 0 0];

internalField   nonuniform List<scalar> 
400
(
-1.14837e-08
-8.97319e-05
-0.000153474
-0.000441987
-0.00134891
-0.00283051
-0.00454528
-0.0061825
-0.00750438
-0.00837492
-0.00868006
-0.00831824
-0.00728543
-0.0055783
-0.0032076
-0.000349817
0.00262109
0.00510806
0.00657025
0.0068884
0.00010417
-4.22679e-06
-0.000256418
-0.000910897
-0.00207271
-0.00363876
-0.00534244
-0.00693535
-0.00822968
-0.00909894
-0.00943945
-0.0091889
-0.00829252
-0.00672345
-0.0045221
-0.00180462
0.00112378
0.00375858
0.00554606
0.00627318
0.000265825
-8.24034e-05
-0.000739138
-0.00183257
-0.00332613
-0.00502835
-0.00673582
-0.00827873
-0.00952537
-0.0103456
-0.0106627
-0.0104424
-0.00965811
-0.00829959
-0.00638435
-0.00398646
-0.00129016
0.00136567
0.00348702
0.00456006
1.96673e-06
-0.00058209
-0.00166136
-0.00317488
-0.00494205
-0.00675666
-0.00845669
-0.00991824
-0.0110412
-0.0117598
-0.0120364
-0.0118454
-0.0111675
-0.0100043
-0.00837137
-0.00631765
-0.00394749
-0.00146853
0.000723514
0.00191367
-0.000851345
-0.0016382
-0.00301713
-0.00477472
-0.00666602
-0.0084945
-0.0101268
-0.011475
-0.0124822
-0.0131159
-0.013356
-0.0131892
-0.01261
-0.0116256
-0.0102525
-0.00852561
-0.00650726
-0.00432611
-0.00227353
-0.00110443
-0.00225191
-0.00313644
-0.00462573
-0.00643472
-0.00831252
-0.0100722
-0.0116009
-0.0128354
-0.0137435
-0.0143071
-0.0145168
-0.0143703
-0.0138727
-0.0130373
-0.0118842
-0.0104419
-0.00875423
-0.00691391
-0.00518761
-0.00406275
-0.00390151
-0.00479323
-0.00624363
-0.00798222
-0.00976534
-0.0114141
-0.0128285
-0.0139587
-0.0147833
-0.0152921
-0.0154815
-0.0153548
-0.0149223
-0.0142026
-0.0132211
-0.0120069
-0.0106004
-0.00907904
-0.00768889
-0.00667029
-0.00546126
-0.00630853
-0.00765409
-0.00927789
-0.0109409
-0.012473
-0.0137821
-0.0148253
-0.0155855
-0.0160554
-0.0162339
-0.0161256
-0.0157428
-0.0151075
-0.0142509
-0.0132078
-0.0120207
-0.0107633
-0.00966866
-0.00874935
-0.00668724
-0.00748111
-0.0087107
-0.0102244
-0.0117796
-0.0132144
-0.0144427
-0.0154235
-0.0161402
-0.0165859
-0.0167596
-0.0166654
-0.0163161
-0.0157355
-0.0149605
-0.0140352
-0.0130084
-0.0119389
-0.0110656
-0.0102304
-0.00747471
-0.00818987
-0.00932767
-0.0107666
-0.0122452
-0.0136165
-0.0147969
-0.0157436
-0.0164382
-0.0168725
-0.0170447
-0.0169582
-0.0166255
-0.0160716
-0.0153382
-0.0144799
-0.013558
-0.0125968
-0.0118968
-0.0110618
-0.00777622
-0.00840939
-0.00949114
-0.0108841
-0.0123228
-0.0136689
-0.0148363
-0.0157778
-0.016471
-0.0169058
-0.0170789
-0.0169929
-0.0166601
-0.0161063
-0.015378
-0.0145379
-0.0136653
-0.0127237
-0.0121905
-0.0112238
-0.00758576
-0.0081699
-0.00921446
-0.0105844
-0.0120167
-0.0133707
-0.0145569
-0.0155208
-0.0162336
-0.0166812
-0.0168581
-0.0167656
-0.0164162
-0.0158374
-0.0150807
-0.0142171
-0.0133256
-0.0123576
-0.011994
-0.0107194
-0.00698622
-0.00754361
-0.00855923
-0.00990125
-0.011346
-0.0127325
-0.0139644
-0.0149762
-0.0157292
-0.0162027
-0.0163877
-0.0162834
-0.0159029
-0.0152759
-0.0144591
-0.0135276
-0.0125741
-0.011588
-0.0112454
-0.00964529
-0.00610776
-0.00662932
-0.00759719
-0.00889044
-0.0103378
-0.0117699
-0.0130703
-0.0141549
-0.0149699
-0.0154848
-0.0156854
-0.0155676
-0.0151445
-0.0144485
-0.0135428
-0.0125066
-0.0114602
-0.0104163
-0.00997691
-0.00814594
-0.00511323
-0.00556277
-0.00642171
-0.00762223
-0.00904641
-0.0105264
-0.0119127
-0.0130917
-0.0139895
-0.014563
-0.0147908
-0.014664
-0.0141927
-0.0134123
-0.0123927
-0.0112148
-0.0100272
-0.00884524
-0.00826196
-0.00623593
-0.00420086
-0.00448577
-0.00511678
-0.00615184
-0.00752587
-0.00905447
-0.0105414
-0.0118356
-0.012839
-0.0134922
-0.0137656
-0.0136473
-0.0131364
-0.0122684
-0.0111158
-0.0097519
-0.00834269
-0.0068948
-0.00603869
-0.00353038
-0.00355822
-0.0035237
-0.00379755
-0.00460333
-0.00590748
-0.00748188
-0.00907493
-0.0104967
-0.0116243
-0.0123779
-0.0127164
-0.0126186
-0.0121045
-0.0111658
-0.00987154
-0.00826635
-0.00650772
-0.00455084
-0.00292159
0.00107612
-0.00323573
-0.00268229
-0.00251565
-0.00307906
-0.00431239
-0.00592449
-0.00762269
-0.00918395
-0.0104573
-0.0113409
-0.0117809
-0.0117456
-0.0112424
-0.0102619
-0.00883571
-0.00693071
-0.00464458
-0.00169893
0.00180248
0.00915552
-0.00318139
-0.00194543
-0.00144533
-0.00185213
-0.00302872
-0.00465923
-0.00643896
-0.00812297
-0.0095318
-0.0105461
-0.0110975
-0.0111504
-0.0106902
-0.00969123
-0.00814076
-0.00591408
-0.00286753
0.00181469
0.00873552
0.0211513
-0.0035743
-0.000717534
2.80294e-06
-0.000556483
-0.00178443
-0.00345456
-0.00531713
-0.00711544
-0.0086491
-0.00977986
-0.0104284
-0.0105491
-0.0101151
-0.00910386
-0.00748223
-0.00506531
-0.000954552
0.00611718
0.0176951
0.0339558
)
;

boundaryField
{
    movingWall
    {
        type            zeroGradient;
    }
    fixedWalls
    {
        type            zeroGradient;
    }
    frontAndBack
    {
        type            empty;
    }
}


// ************************************************************************* //
