/*--------------------------------*- C++ -*----------------------------------*\
| =========                 |                                                 |
| \\      /  F ield         | OpenFOAM: The Open Source CFD Toolbox           |
|  \\    /   O peration     | Version:  5.x                                   |
|   \\  /    A nd           | Web:      www.OpenFOAM.org                      |
|    \\/     M anipulation  |                                                 |
\*---------------------------------------------------------------------------*/
FoamFile
{
    version     2.0;
    format      ascii;
    class       surfaceScalarField;
    location    "17.5";
    object      phi;
}
// * * * * * * * * * * * * * * * * * * * * * * * * * * * * * * * * * * * * * //

dimensions      [0 3 -1 0 0 0 0];

internalField   nonuniform List<scalar> 
760
(
1.33704e-07
-1.33701e-07
-1.43397e-07
2.77101e-07
-9.79173e-07
8.35777e-07
-2.27054e-06
1.29137e-06
-3.66036e-06
1.38982e-06
-4.90935e-06
1.24899e-06
-5.96802e-06
1.05867e-06
-6.80961e-06
8.41583e-07
-7.42728e-06
6.17673e-07
-7.82755e-06
4.00265e-07
-8.02242e-06
1.94876e-07
-8.00075e-06
-2.16752e-08
-7.77782e-06
-2.22922e-07
-7.34437e-06
-4.33454e-07
-6.63897e-06
-7.05401e-07
-5.63883e-06
-1.00014e-06
-4.29348e-06
-1.34535e-06
-2.66147e-06
-1.63201e-06
-9.81836e-07
-1.67963e-06
-9.81835e-07
-4.27068e-07
2.93368e-07
-1.43339e-06
1.28342e-06
-2.77576e-06
2.17815e-06
-4.01859e-06
2.53419e-06
-5.0881e-06
2.45933e-06
-6.03399e-06
2.19488e-06
-6.8129e-06
1.83758e-06
-7.41934e-06
1.44803e-06
-7.86673e-06
1.06506e-06
-8.15486e-06
6.88393e-07
-8.26652e-06
3.06537e-07
-8.20467e-06
-8.35253e-08
-7.9657e-06
-4.61889e-07
-7.52656e-06
-8.72595e-07
-6.88667e-06
-1.3453e-06
-6.00438e-06
-1.88243e-06
-4.84992e-06
-2.4998e-06
-3.36804e-06
-3.1139e-06
-1.6225e-06
-3.42517e-06
-2.60434e-06
-1.01814e-06
1.3115e-06
-2.33286e-06
2.59814e-06
-3.4985e-06
3.34379e-06
-4.47962e-06
3.51531e-06
-5.31143e-06
3.29115e-06
-6.00158e-06
2.88503e-06
-6.54975e-06
2.38576e-06
-6.94825e-06
1.84653e-06
-7.20577e-06
1.32258e-06
-7.3286e-06
8.11229e-07
-7.334e-06
3.1193e-07
-7.2313e-06
-1.86225e-07
-7.00214e-06
-6.91044e-07
-6.62871e-06
-1.24603e-06
-6.10093e-06
-1.87308e-06
-5.3909e-06
-2.59246e-06
-4.47716e-06
-3.41353e-06
-3.30478e-06
-4.28628e-06
-1.80656e-06
-4.92339e-06
-4.4109e-06
-1.24226e-06
2.55377e-06
-2.45385e-06
3.80973e-06
-3.44403e-06
4.33398e-06
-4.227e-06
4.29828e-06
-4.85218e-06
3.91632e-06
-5.33529e-06
3.36814e-06
-5.68979e-06
2.74026e-06
-5.93907e-06
2.09582e-06
-6.09086e-06
1.47436e-06
-6.15294e-06
8.73309e-07
-6.12803e-06
2.8702e-07
-6.01571e-06
-2.9854e-07
-5.80494e-06
-9.01823e-07
-5.49434e-06
-1.55663e-06
-5.07394e-06
-2.29348e-06
-4.52273e-06
-3.14367e-06
-3.81399e-06
-4.12227e-06
-2.90162e-06
-5.19865e-06
-1.65126e-06
-6.17375e-06
-6.06215e-06
-1.17317e-06
3.72694e-06
-2.20704e-06
4.8436e-06
-3.02094e-06
5.14787e-06
-3.64639e-06
4.92374e-06
-4.12026e-06
4.3902e-06
-4.46666e-06
3.71454e-06
-4.71088e-06
2.98447e-06
-4.87538e-06
2.26032e-06
-4.96649e-06
1.56546e-06
-4.98856e-06
8.95387e-07
-4.94226e-06
2.40719e-07
-4.82684e-06
-4.1396e-07
-4.63927e-06
-1.0894e-06
-4.38121e-06
-1.81468e-06
-4.05017e-06
-2.62452e-06
-3.63351e-06
-3.56033e-06
-3.09764e-06
-4.65814e-06
-2.38254e-06
-5.91376e-06
-1.39148e-06
-7.1648e-06
-7.45364e-06
-9.67211e-07
4.69415e-06
-1.80279e-06
5.67918e-06
-2.45593e-06
5.80102e-06
-2.94705e-06
5.41486e-06
-3.30739e-06
4.75054e-06
-3.5637e-06
3.97085e-06
-3.74178e-06
3.16255e-06
-3.85778e-06
2.37632e-06
-3.91687e-06
1.62456e-06
-3.92168e-06
9.00195e-07
-3.87217e-06
1.9121e-07
-3.76724e-06
-5.18885e-07
-3.60643e-06
-1.25021e-06
-3.39292e-06
-2.0282e-06
-3.13064e-06
-2.8868e-06
-2.8185e-06
-3.87247e-06
-2.43809e-06
-5.03855e-06
-1.92451e-06
-6.42733e-06
-1.13567e-06
-7.95365e-06
-8.5893e-06
-7.34712e-07
5.42886e-06
-1.36276e-06
6.30723e-06
-1.8587e-06
6.29696e-06
-2.22859e-06
5.78474e-06
-2.49894e-06
5.02089e-06
-2.69198e-06
4.16389e-06
-2.82724e-06
3.29781e-06
-2.91554e-06
2.46462e-06
-2.96113e-06
1.67014e-06
-2.96545e-06
9.04517e-07
-2.92712e-06
1.5288e-07
-2.84405e-06
-6.01949e-07
-2.7155e-06
-1.37877e-06
-2.5451e-06
-2.19859e-06
-2.3407e-06
-3.09121e-06
-2.10802e-06
-4.10515e-06
-1.83826e-06
-5.30831e-06
-1.47895e-06
-6.78664e-06
-9.3597e-07
-8.49663e-06
-9.52527e-06
-4.8491e-07
5.91377e-06
-9.27142e-07
6.74946e-06
-1.27344e-06
6.64325e-06
-1.5341e-06
6.0454e-06
-1.72825e-06
5.21504e-06
-1.87083e-06
4.30647e-06
-1.9742e-06
3.40117e-06
-2.04474e-06
2.53516e-06
-2.0852e-06
1.71059e-06
-2.09588e-06
9.15201e-07
-2.07471e-06
1.31709e-07
-2.01916e-06
-6.575e-07
-1.92823e-06
-1.46969e-06
-1.80525e-06
-2.32157e-06
-1.65982e-06
-3.23664e-06
-1.50281e-06
-4.26217e-06
-1.33103e-06
-5.48008e-06
-1.10094e-06
-7.01673e-06
-7.24308e-07
-8.87326e-06
-1.02496e-05
-2.63667e-07
6.17744e-06
-5.17531e-07
7.00332e-06
-7.16207e-07
6.84193e-06
-8.7557e-07
6.20476e-06
-9.99843e-07
5.33931e-06
-1.0963e-06
4.40293e-06
-1.17074e-06
3.47561e-06
-1.22559e-06
2.59001e-06
-1.2619e-06
1.74691e-06
-1.27934e-06
9.32641e-07
-1.27619e-06
1.28554e-07
-1.25022e-06
-6.83468e-07
-1.20065e-06
-1.51926e-06
-1.13032e-06
-2.3919e-06
-1.04864e-06
-3.31831e-06
-9.68698e-07
-4.34211e-06
-8.90846e-07
-5.55793e-06
-7.82869e-07
-7.1247e-06
-5.71109e-07
-9.08502e-06
-1.08207e-05
-4.59113e-08
6.22335e-06
-1.27892e-07
7.0853e-06
-1.94907e-07
6.90894e-06
-2.53413e-07
6.26327e-06
-3.05921e-07
5.39182e-06
-3.54401e-07
4.45141e-06
-3.97949e-07
3.51916e-06
-4.35091e-07
2.62715e-06
-4.6515e-07
1.77696e-06
-4.87626e-07
9.55117e-07
-5.01764e-07
1.42692e-07
-5.06443e-07
-6.78788e-07
-5.01575e-07
-1.52413e-06
-4.89492e-07
-2.40399e-06
-4.78433e-07
-3.32937e-06
-4.80934e-07
-4.33961e-06
-5.03057e-07
-5.53581e-06
-5.06084e-07
-7.12168e-06
-4.22007e-07
-9.1691e-06
-1.12427e-05
1.71972e-07
6.05138e-06
2.61036e-07
6.99624e-06
3.27242e-07
6.84273e-06
3.56811e-07
6.2337e-06
3.71728e-07
5.3769e-06
3.72365e-07
4.45077e-06
3.62908e-07
3.52862e-06
3.46882e-07
2.64318e-06
3.2592e-07
1.79793e-06
3.00348e-07
9.80689e-07
2.69821e-07
1.7322e-07
2.34032e-07
-6.43e-07
1.92144e-07
-1.48225e-06
1.42184e-07
-2.35403e-06
7.73923e-08
-3.26458e-06
-1.59067e-08
-4.24631e-06
-1.36021e-07
-5.41569e-06
-2.62211e-07
-6.99549e-06
-3.14566e-07
-9.11675e-06
-1.15573e-05
3.79919e-07
5.67146e-06
6.31826e-07
6.74433e-06
8.23488e-07
6.65107e-06
9.51459e-07
6.10573e-06
1.04033e-06
5.28803e-06
1.09671e-06
4.39439e-06
1.12726e-06
3.49806e-06
1.13708e-06
2.63336e-06
1.1286e-06
1.80641e-06
1.10195e-06
1.00734e-06
1.05552e-06
2.1965e-07
9.87491e-07
-5.74971e-07
8.95424e-07
-1.39018e-06
7.77247e-07
-2.23585e-06
6.28789e-07
-3.11612e-06
4.43137e-07
-4.06066e-06
2.06433e-07
-5.17899e-06
-6.29832e-08
-6.72607e-06
-1.79036e-07
-9.00069e-06
-1.17363e-05
5.80042e-07
5.09142e-06
9.91557e-07
6.33282e-06
1.30462e-06
6.33801e-06
1.53472e-06
5.87563e-06
1.70431e-06
5.11844e-06
1.82536e-06
4.27335e-06
1.9044e-06
3.41902e-06
1.94697e-06
2.59078e-06
1.95597e-06
1.79741e-06
1.93136e-06
1.03194e-06
1.87038e-06
2.80635e-07
1.77e-06
-4.74598e-07
1.62632e-06
-1.24649e-06
1.43652e-06
-2.04606e-06
1.19823e-06
-2.87783e-06
9.06371e-07
-3.7688e-06
5.50383e-07
-4.823e-06
1.90674e-07
-6.36636e-06
-1.75649e-08
-8.79246e-06
-1.17539e-05
7.51143e-07
4.34027e-06
1.31276e-06
5.7712e-06
1.74509e-06
5.90568e-06
2.0934e-06
5.52732e-06
2.35933e-06
4.85252e-06
2.55849e-06
4.07418e-06
2.69797e-06
3.27954e-06
2.78309e-06
2.50566e-06
2.81689e-06
1.76362e-06
2.79915e-06
1.04968e-06
2.72605e-06
3.53734e-07
2.59313e-06
-3.41679e-07
2.39621e-06
-1.04957e-06
2.13096e-06
-1.78081e-06
1.79585e-06
-2.54271e-06
1.39348e-06
-3.36643e-06
9.23752e-07
-4.35328e-06
4.63108e-07
-5.90572e-06
1.41948e-07
-8.4713e-06
-1.16119e-05
8.95382e-07
3.44489e-06
1.57774e-06
5.08885e-06
2.13453e-06
5.34888e-06
2.61028e-06
5.05157e-06
2.99172e-06
4.47108e-06
3.28527e-06
3.78063e-06
3.49934e-06
3.06548e-06
3.63945e-06
2.36555e-06
3.70804e-06
1.69503e-06
3.70498e-06
1.05274e-06
3.62501e-06
4.33706e-07
3.4608e-06
-1.77467e-07
3.21114e-06
-7.99909e-07
2.86894e-06
-1.43862e-06
2.43251e-06
-2.10628e-06
1.91416e-06
-2.84808e-06
1.31895e-06
-3.75807e-06
7.3178e-07
-5.31855e-06
2.90819e-07
-8.03033e-06
-1.13211e-05
9.18163e-07
2.52673e-06
1.71343e-06
4.29358e-06
2.41834e-06
4.64397e-06
3.04265e-06
4.42727e-06
3.56448e-06
3.94925e-06
3.97629e-06
3.36881e-06
4.28425e-06
2.75752e-06
4.49526e-06
2.15454e-06
4.61106e-06
1.57923e-06
4.63248e-06
1.03131e-06
4.55636e-06
5.09825e-07
4.36615e-06
1.27381e-08
4.07033e-06
-5.04089e-07
3.65691e-06
-1.0252e-06
3.12264e-06
-1.57201e-06
2.48797e-06
-2.21341e-06
1.75775e-06
-3.02785e-06
1.03253e-06
-4.59333e-06
4.61801e-07
-7.45961e-06
-1.08593e-05
8.21198e-07
1.70553e-06
1.68489e-06
3.4299e-06
2.56205e-06
3.76681e-06
3.35861e-06
3.6307e-06
4.03805e-06
3.26981e-06
4.58937e-06
2.81749e-06
5.01142e-06
2.33547e-06
5.30963e-06
1.85633e-06
5.48585e-06
1.40302e-06
5.54155e-06
9.75612e-07
5.47358e-06
5.77789e-07
5.29181e-06
1.94512e-07
4.96644e-06
-1.78717e-07
4.51111e-06
-5.69876e-07
3.90845e-06
-9.69348e-07
3.18511e-06
-1.49007e-06
2.33355e-06
-2.17628e-06
1.46356e-06
-3.72334e-06
6.82977e-07
-6.67903e-06
-1.01763e-05
3.91425e-07
1.3141e-06
1.38121e-06
2.44011e-06
2.43602e-06
2.712e-06
3.42844e-06
2.63829e-06
4.28598e-06
2.41227e-06
4.99758e-06
2.10589e-06
5.55896e-06
1.77409e-06
5.97042e-06
1.44488e-06
6.23721e-06
1.13622e-06
6.36467e-06
8.48156e-07
6.35525e-06
5.87206e-07
6.21589e-06
3.33872e-07
5.94148e-06
9.56953e-08
5.52601e-06
-1.54402e-07
4.94354e-06
-3.86882e-07
4.23282e-06
-7.7935e-07
3.33951e-06
-1.28297e-06
2.36007e-06
-2.7439e-06
1.16337e-06
-5.48232e-06
-9.01295e-06
-5.14893e-07
1.829e-06
6.2822e-07
1.297e-06
2.02908e-06
1.31114e-06
3.3053e-06
1.36207e-06
4.40604e-06
1.31153e-06
5.33521e-06
1.17672e-06
6.09259e-06
1.01671e-06
6.6773e-06
8.60165e-07
7.10225e-06
7.11264e-07
7.37515e-06
5.75258e-07
7.51214e-06
4.50215e-07
7.51441e-06
3.3161e-07
7.38703e-06
2.2307e-07
7.12657e-06
1.06062e-07
6.73561e-06
4.07158e-09
6.20721e-06
-2.50942e-07
5.47753e-06
-5.53294e-07
4.50574e-06
-1.77212e-06
2.51615e-06
-3.49273e-06
-6.4968e-06
1.829e-06
3.12599e-06
4.43713e-06
5.7992e-06
7.11073e-06
8.28745e-06
9.30416e-06
1.01643e-05
1.08756e-05
1.14509e-05
1.19011e-05
1.22327e-05
1.24557e-05
1.25618e-05
1.25659e-05
1.23149e-05
1.17616e-05
9.98953e-06
6.4968e-06
)
;

boundaryField
{
    movingWall
    {
        type            calculated;
        value           uniform 0;
    }
    fixedWalls
    {
        type            calculated;
        value           uniform 0;
    }
    frontAndBack
    {
        type            empty;
        value           nonuniform 0();
    }
}


// ************************************************************************* //
