/*--------------------------------*- C++ -*----------------------------------*\
| =========                 |                                                 |
| \\      /  F ield         | OpenFOAM: The Open Source CFD Toolbox           |
|  \\    /   O peration     | Version:  5.x                                   |
|   \\  /    A nd           | Web:      www.OpenFOAM.org                      |
|    \\/     M anipulation  |                                                 |
\*---------------------------------------------------------------------------*/
FoamFile
{
    version     2.0;
    format      ascii;
    class       volVectorField;
    location    "17.5";
    object      U;
}
// * * * * * * * * * * * * * * * * * * * * * * * * * * * * * * * * * * * * * //

dimensions      [0 1 -1 0 0 0 0];

internalField   nonuniform List<vector> 
400
(
(0.0027717 -0.00360676 0)
(0.00172101 -0.000521857 0)
(-0.00611108 0.00492153 0)
(-0.029029 0.0112032 0)
(-0.0629709 0.0139063 0)
(-0.089201 0.0121446 0)
(-0.112824 0.0103681 0)
(-0.130545 0.00800668 0)
(-0.144702 0.00587409 0)
(-0.154175 0.00352231 0)
(-0.159583 0.00154796 0)
(-0.161493 -0.00058345 0)
(-0.159138 -0.00400132 0)
(-0.151695 -0.00626416 0)
(-0.139255 -0.00963946 0)
(-0.120717 -0.0124125 0)
(-0.0966237 -0.0156249 0)
(-0.0675341 -0.016966 0)
(-0.0363995 -0.0144563 0)
(-0.00898276 -0.00248591 0)
(-0.00254116 -0.00122749 0)
(-0.0138954 0.0134031 0)
(-0.0399787 0.0314791 0)
(-0.0690625 0.0398783 0)
(-0.0936849 0.038869 0)
(-0.113872 0.0348874 0)
(-0.130989 0.0294542 0)
(-0.14375 0.0236393 0)
(-0.154274 0.017067 0)
(-0.161431 0.0109015 0)
(-0.165425 0.00495108 0)
(-0.165837 -0.00101694 0)
(-0.162582 -0.00750117 0)
(-0.155605 -0.0146188 0)
(-0.144357 -0.0230854 0)
(-0.128183 -0.0326558 0)
(-0.107104 -0.0432386 0)
(-0.081128 -0.0521284 0)
(-0.0503885 -0.0530374 0)
(-0.0183833 -0.0323569 0)
(-0.0091677 0.0156387 0)
(-0.0324497 0.0411895 0)
(-0.0588839 0.0565987 0)
(-0.0817457 0.0606956 0)
(-0.0998933 0.0571654 0)
(-0.114892 0.0501051 0)
(-0.126955 0.0412935 0)
(-0.13618 0.0318883 0)
(-0.142746 0.0231302 0)
(-0.146092 0.0144148 0)
(-0.147351 0.00566793 0)
(-0.146253 -0.00319391 0)
(-0.143082 -0.0123729 0)
(-0.136857 -0.0223443 0)
(-0.127679 -0.0337082 0)
(-0.114814 -0.0468542 0)
(-0.0979217 -0.0620351 0)
(-0.0767642 -0.0780531 0)
(-0.0501174 -0.0884594 0)
(-0.0211847 -0.074847 0)
(-0.0132221 0.0393599 0)
(-0.0380812 0.064743 0)
(-0.0610623 0.0768892 0)
(-0.0788119 0.0778788 0)
(-0.0924122 0.0718305 0)
(-0.103232 0.0623076 0)
(-0.111288 0.0510534 0)
(-0.117137 0.0393084 0)
(-0.12095 0.0278139 0)
(-0.12297 0.0165868 0)
(-0.123337 0.00569783 0)
(-0.121928 -0.00524325 0)
(-0.118685 -0.0166158 0)
(-0.113393 -0.0289712 0)
(-0.106014 -0.0428966 0)
(-0.0961515 -0.0589348 0)
(-0.0831137 -0.0772917 0)
(-0.0662019 -0.0971976 0)
(-0.0438208 -0.114015 0)
(-0.0195167 -0.109468 0)
(-0.0134405 0.0617085 0)
(-0.0360268 0.0859098 0)
(-0.0546409 0.09431 0)
(-0.0686204 0.0919967 0)
(-0.0790497 0.0830891 0)
(-0.0869069 0.0709679 0)
(-0.0924652 0.0573964 0)
(-0.0964019 0.0436629 0)
(-0.0988564 0.0303919 0)
(-0.0999526 0.0176024 0)
(-0.099688 0.00515655 0)
(-0.0980401 -0.0073185 0)
(-0.0949764 -0.0202253 0)
(-0.0904667 -0.0341757 0)
(-0.0845234 -0.0498595 0)
(-0.0770338 -0.0680429 0)
(-0.0673572 -0.0892936 0)
(-0.0543146 -0.113264 0)
(-0.0359194 -0.136089 0)
(-0.0170581 -0.138844 0)
(-0.0115045 0.0824535 0)
(-0.0300967 0.104401 0)
(-0.0447361 0.109044 0)
(-0.0557574 0.10331 0)
(-0.0637007 0.0915155 0)
(-0.0694913 0.0770113 0)
(-0.073535 0.0616011 0)
(-0.0763803 0.0464423 0)
(-0.0780698 0.031913 0)
(-0.0786766 0.0179083 0)
(-0.0782071 0.00421887 0)
(-0.0766383 -0.00948281 0)
(-0.0739467 -0.023597 0)
(-0.0701549 -0.0386827 0)
(-0.0653448 -0.0554478 0)
(-0.0595626 -0.07479 0)
(-0.0525197 -0.0976802 0)
(-0.0430758 -0.12455 0)
(-0.0305511 -0.15323 0)
(-0.0110492 -0.162869 0)
(-0.00942431 0.0998819 0)
(-0.0228434 0.119366 0)
(-0.0340374 0.120835 0)
(-0.0423398 0.112043 0)
(-0.0482174 0.0978254 0)
(-0.0525073 0.081457 0)
(-0.0555492 0.0646887 0)
(-0.0577069 0.0484561 0)
(-0.0589967 0.03294 0)
(-0.0594735 0.017978 0)
(-0.0591176 0.00331079 0)
(-0.0578851 -0.0114015 0)
(-0.0557325 -0.0265349 0)
(-0.0526934 -0.0425553 0)
(-0.0488871 -0.0601193 0)
(-0.0444421 -0.0801961 0)
(-0.0393382 -0.104018 0)
(-0.03252 -0.132986 0)
(-0.0249238 -0.16581 0)
(-0.00839061 -0.183048 0)
(-0.0065174 0.113134 0)
(-0.0154019 0.130667 0)
(-0.0235098 0.129621 0)
(-0.0292734 0.118508 0)
(-0.0333752 0.102532 0)
(-0.0364473 0.0848304 0)
(-0.0387155 0.0670726 0)
(-0.0403872 0.050034 0)
(-0.0414582 0.0337887 0)
(-0.0419549 0.018118 0)
(-0.0418397 0.00270471 0)
(-0.0410535 -0.0128031 0)
(-0.0395457 -0.0287515 0)
(-0.037349 -0.0455138 0)
(-0.0345995 -0.0636318 0)
(-0.0314797 -0.0840818 0)
(-0.0281242 -0.10835 0)
(-0.0236159 -0.138665 0)
(-0.0203092 -0.174545 0)
(-0.0045299 -0.198962 0)
(-0.00412984 0.121366 0)
(-0.0084509 0.137906 0)
(-0.0134746 0.135277 0)
(-0.0168468 0.122834 0)
(-0.0193253 0.105778 0)
(-0.0213009 0.0872533 0)
(-0.0228627 0.0688662 0)
(-0.0240972 0.0512948 0)
(-0.0249766 0.034563 0)
(-0.0255017 0.0184078 0)
(-0.0256339 0.00247037 0)
(-0.0253184 -0.0136123 0)
(-0.0245132 -0.0301586 0)
(-0.0232417 -0.0474614 0)
(-0.0216485 -0.0659232 0)
(-0.0199443 -0.0864761 0)
(-0.0183988 -0.110889 0)
(-0.015801 -0.142045 0)
(-0.0165384 -0.180229 0)
(-0.00235279 -0.211789 0)
(-0.000815541 0.125147 0)
(-0.00183722 0.14187 0)
(-0.00400336 0.13826 0)
(-0.00503212 0.125179 0)
(-0.00594882 0.107672 0)
(-0.00682984 0.0887787 0)
(-0.00765018 0.0700894 0)
(-0.00840852 0.0522422 0)
(-0.00905168 0.0352489 0)
(-0.00956209 0.0188288 0)
(-0.00991155 0.00260052 0)
(-0.0100672 -0.013807 0)
(-0.0100111 -0.0306927 0)
(-0.00975967 -0.048284 0)
(-0.00944509 -0.0668527 0)
(-0.00927839 -0.0872399 0)
(-0.00978897 -0.111461 0)
(-0.00878003 -0.143016 0)
(-0.0134453 -0.182936 0)
(0.000535066 -0.22136 0)
(0.00162879 0.123807 0)
(0.00421414 0.141939 0)
(0.00525043 0.138258 0)
(0.00639077 0.125422 0)
(0.00701126 0.10803 0)
(0.00728121 0.089266 0)
(0.00727737 0.0706427 0)
(0.0070706 0.0528017 0)
(0.00673129 0.0357882 0)
(0.00628696 0.0193385 0)
(0.00575194 0.00307488 0)
(0.00513115 -0.0133756 0)
(0.00440903 -0.0302997 0)
(0.00356975 -0.0478914 0)
(0.00247687 -0.0663133 0)
(0.000988214 -0.0862853 0)
(-0.001755 -0.110004 0)
(-0.00221439 -0.141572 0)
(-0.0109952 -0.183452 0)
(0.0027773 -0.228319 0)
(0.00372161 0.119236 0)
(0.0102442 0.138807 0)
(0.0138573 0.136041 0)
(0.0173391 0.12422 0)
(0.0196901 0.1072 0)
(0.0212481 0.088847 0)
(0.0222026 0.0705447 0)
(0.0226622 0.0529503 0)
(0.0227136 0.0361494 0)
(0.0223925 0.019914 0)
(0.0217002 0.00388821 0)
(0.0206176 -0.0122971 0)
(0.0190884 -0.0289277 0)
(0.017103 -0.0461894 0)
(0.0144839 -0.0641738 0)
(0.0111957 -0.0834911 0)
(0.00621235 -0.106378 0)
(0.00418271 -0.137633 0)
(-0.00885178 -0.181697 0)
(0.00607663 -0.23251 0)
(0.0060635 0.110118 0)
(0.0157742 0.13215 0)
(0.0224637 0.130596 0)
(0.0279249 0.12047 0)
(0.0322057 0.104538 0)
(0.0352098 0.0870497 0)
(0.0372927 0.0694682 0)
(0.0385752 0.0524692 0)
(0.0391412 0.0361992 0)
(0.0390284 0.0204867 0)
(0.0382242 0.00502049 0)
(0.0366957 -0.0105482 0)
(0.0343346 -0.0265001 0)
(0.0311472 -0.0430458 0)
(0.0268579 -0.0602524 0)
(0.0217111 -0.0786654 0)
(0.0144702 -0.100439 0)
(0.010433 -0.131396 0)
(-0.0067614 -0.17809 0)
(0.00985149 -0.234697 0)
(0.00796975 0.0971153 0)
(0.0208147 0.12315 0)
(0.0302226 0.123885 0)
(0.0379723 0.115166 0)
(0.0443399 0.100656 0)
(0.0490947 0.0842372 0)
(0.0525768 0.067596 0)
(0.0549114 0.0514384 0)
(0.056169 0.0359636 0)
(0.056391 0.0210623 0)
(0.055547 0.00648026 0)
(0.0536024 -0.00810714 0)
(0.0503801 -0.0229741 0)
(0.0459548 -0.0383737 0)
(0.0398675 -0.0544165 0)
(0.0328001 -0.0716508 0)
(0.0230291 -0.0921806 0)
(0.0169194 -0.123241 0)
(-0.00420204 -0.173031 0)
(0.0147646 -0.235214 0)
(0.00982339 0.0806283 0)
(0.0250825 0.109929 0)
(0.0369826 0.113309 0)
(0.0471199 0.106453 0)
(0.0557828 0.0939093 0)
(0.0626466 0.0791575 0)
(0.0678549 0.0639879 0)
(0.0715257 0.0491798 0)
(0.0737045 0.0349826 0)
(0.0744445 0.0213481 0)
(0.0736858 0.00809587 0)
(0.0714002 -0.00506086 0)
(0.0673165 -0.0183616 0)
(0.0616724 -0.0321222 0)
(0.0536899 -0.0465263 0)
(0.044646 -0.0623073 0)
(0.0320309 -0.0814844 0)
(0.0239286 -0.112858 0)
(-0.00164669 -0.166324 0)
(0.0203505 -0.235081 0)
(0.0100622 0.0610039 0)
(0.0276031 0.0957806 0)
(0.0416216 0.102083 0)
(0.0542579 0.0968656 0)
(0.0656816 0.0861063 0)
(0.0752062 0.0731228 0)
(0.0826086 0.0595735 0)
(0.0879723 0.046304 0)
(0.0913571 0.0336324 0)
(0.0928464 0.0215455 0)
(0.0923568 0.00996085 0)
(0.0898945 -0.00146799 0)
(0.0850406 -0.0127414 0)
(0.0783444 -0.0243672 0)
(0.0684942 -0.0366037 0)
(0.0576 -0.0505854 0)
(0.0419675 -0.0681393 0)
(0.0319589 -0.1 0)
(0.000854995 -0.157968 0)
(0.02728 -0.232038 0)
(0.00927307 0.041423 0)
(0.0268926 0.0761071 0)
(0.0431399 0.0844036 0)
(0.0587436 0.0813387 0)
(0.073315 0.0730041 0)
(0.085961 0.062628 0)
(0.0960056 0.0516183 0)
(0.103436 0.0407362 0)
(0.108294 0.0304 0)
(0.110796 0.0205996 0)
(0.110692 0.0113462 0)
(0.108418 0.00229205 0)
(0.103189 -0.00647698 0)
(0.0960357 -0.0155345 0)
(0.0847745 -0.0250268 0)
(0.0727605 -0.0367398 0)
(0.0543138 -0.0521088 0)
(0.0423611 -0.0845723 0)
(0.00519117 -0.146095 0)
(0.036776 -0.221225 0)
(-0.000146933 0.0255282 0)
(0.0200797 0.0607222 0)
(0.0385877 0.0685744 0)
(0.0578987 0.0667023 0)
(0.0763651 0.0603793 0)
(0.0924223 0.0523865 0)
(0.105521 0.04381 0)
(0.115541 0.0352405 0)
(0.122401 0.0271752 0)
(0.126616 0.0196377 0)
(0.127689 0.0127371 0)
(0.126587 0.00619219 0)
(0.12197 8.69346e-05 0)
(0.115972 -0.00632505 0)
(0.104802 -0.0127735 0)
(0.0937546 -0.0216597 0)
(0.073513 -0.0341094 0)
(0.0608482 -0.0655243 0)
(0.0185033 -0.126139 0)
(0.0535558 -0.192808 0)
(-0.0134964 0.0291163 0)
(-0.000280018 0.0307728 0)
(0.0267651 0.0344845 0)
(0.0529326 0.0355229 0)
(0.07646 0.0337508 0)
(0.0970459 0.0298966 0)
(0.114098 0.0254682 0)
(0.127911 0.0209935 0)
(0.138031 0.0167594 0)
(0.145395 0.0127509 0)
(0.149263 0.00919226 0)
(0.151087 0.00563023 0)
(0.149256 0.00263988 0)
(0.14617 -0.00119595 0)
(0.13787 -0.00432038 0)
(0.13049 -0.0105346 0)
(0.112116 -0.0187107 0)
(0.102611 -0.0452149 0)
(0.059829 -0.0913668 0)
(0.0869728 -0.139162 0)
(0.0429222 0.0380034 0)
(0.048516 0.0296117 0)
(0.0705098 0.0270941 0)
(0.100862 0.0268799 0)
(0.127904 0.0259204 0)
(0.15287 0.0239242 0)
(0.174684 0.0213415 0)
(0.19417 0.0188429 0)
(0.209947 0.0163845 0)
(0.223571 0.0142655 0)
(0.23355 0.0122109 0)
(0.241937 0.0105093 0)
(0.246897 0.00870328 0)
(0.250648 0.00720351 0)
(0.250958 0.0052375 0)
(0.248064 0.00241321 0)
(0.238362 0.00245926 0)
(0.223223 -0.00896163 0)
(0.174659 -0.0123756 0)
(0.158634 -0.0595491 0)
)
;

boundaryField
{
    movingWall
    {
        type            fixedValue;
        value           uniform (1 0 0);
    }
    fixedWalls
    {
        type            noSlip;
    }
    frontAndBack
    {
        type            empty;
    }
}


// ************************************************************************* //
