/*--------------------------------*- C++ -*----------------------------------*\
| =========                 |                                                 |
| \\      /  F ield         | OpenFOAM: The Open Source CFD Toolbox           |
|  \\    /   O peration     | Version:  5.x                                   |
|   \\  /    A nd           | Web:      www.OpenFOAM.org                      |
|    \\/     M anipulation  |                                                 |
\*---------------------------------------------------------------------------*/
FoamFile
{
    version     2.0;
    format      ascii;
    class       volScalarField;
    location    "20";
    object      epsilon;
}
// * * * * * * * * * * * * * * * * * * * * * * * * * * * * * * * * * * * * * //

dimensions      [0 2 -3 0 0 0 0];

internalField   nonuniform List<scalar> 
400
(
2.97238e-05
8.97635e-05
0.000338657
0.000672082
0.000897301
0.00107063
0.00120897
0.00134208
0.0014576
0.00157572
0.00168544
0.00180137
0.00191225
0.00197928
0.00200736
0.00199397
0.00182438
0.00139476
0.000850405
0.000590699
0.000128077
0.00033474
0.000832121
0.0011025
0.00115924
0.0011813
0.00118646
0.00122364
0.00126882
0.00135553
0.00146712
0.00161649
0.0017937
0.00200141
0.00222318
0.00241982
0.00250487
0.00245855
0.00192599
0.00124622
0.000402987
0.0009514
0.00116138
0.00118464
0.00114412
0.0011224
0.00110468
0.00112189
0.00118025
0.00125475
0.00134793
0.00145836
0.00159072
0.00175206
0.00194459
0.00216575
0.00233268
0.00239157
0.00217672
0.00163983
0.000845167
0.00123272
0.00124427
0.00114726
0.00106313
0.00100911
0.000992011
0.000991638
0.00101891
0.00105125
0.00110276
0.00117671
0.00128635
0.00144132
0.00165764
0.00193779
0.00222512
0.00235192
0.00228828
0.0018933
0.0011581
0.00138547
0.00121743
0.00105407
0.000937141
0.00087416
0.000834031
0.000805639
0.000790596
0.000784777
0.000797298
0.000846476
0.00094123
0.00110034
0.00134864
0.00170479
0.00214996
0.00239915
0.0024315
0.00208275
0.0013301
0.00138125
0.00114523
0.000937633
0.000817872
0.000740077
0.000673985
0.000614254
0.000563457
0.000534889
0.000525558
0.000548158
0.000628878
0.000780707
0.00104384
0.00146107
0.00204699
0.00251037
0.00262583
0.00223537
0.0013594
0.00133511
0.00104116
0.000834713
0.000713126
0.000621143
0.000535169
0.000455068
0.000387417
0.000345913
0.000329383
0.000331852
0.000391859
0.000520028
0.000767424
0.00120951
0.00191446
0.00263573
0.00286237
0.00235808
0.00134046
0.00123533
0.000943617
0.000748539
0.00062771
0.000527128
0.000430678
0.000343031
0.000272677
0.000229137
0.000210342
0.000207748
0.000245548
0.000341028
0.000549349
0.00097306
0.00174285
0.00274809
0.00315431
0.00245954
0.00129159
0.00112072
0.000857909
0.000680589
0.000563203
0.000459778
0.000360982
0.000274158
0.000207721
0.000168093
0.000151315
0.000149063
0.00017434
0.000241229
0.000402211
0.000783229
0.00157699
0.00282073
0.00345314
0.00253613
0.00119927
0.00101856
0.000787391
0.000628426
0.000517095
0.00041638
0.000320275
0.000237627
0.000177142
0.000141555
0.000126641
0.000126058
0.000144642
0.000194638
0.00031868
0.000644704
0.00144014
0.0028667
0.00376817
0.00259735
0.00109966
0.000934309
0.000731958
0.000591747
0.000487847
0.000391358
0.000301373
0.000227094
0.000172467
0.000138314
0.000121534
0.00012123
0.000136048
0.000177321
0.000280431
0.000561273
0.00132123
0.00291368
0.00406444
0.00263699
0.00100988
0.000877083
0.000694142
0.000566628
0.000469828
0.000383441
0.000302502
0.000231857
0.000179374
0.000146028
0.000129243
0.000129239
0.00013998
0.000174689
0.000268452
0.000524065
0.00124966
0.00297201
0.00433184
0.00266345
0.000915939
0.000837911
0.000673463
0.000558942
0.000470468
0.000387749
0.000311286
0.000246101
0.00019736
0.000165389
0.000148012
0.000148376
0.000158529
0.000190529
0.000274405
0.000513436
0.00122083
0.00304663
0.00452665
0.00267626
0.000824167
0.000816392
0.000682031
0.000566901
0.000480316
0.000402005
0.000331931
0.000273423
0.000227981
0.000197062
0.000178111
0.000178466
0.000188657
0.000221295
0.000305987
0.000536918
0.00121917
0.003154
0.00462734
0.00268293
0.000724876
0.000791351
0.000701578
0.000591327
0.000506804
0.000432046
0.000365839
0.000310833
0.000267944
0.00023863
0.000219117
0.000219852
0.000231234
0.000267164
0.000358706
0.000601501
0.00129055
0.00331627
0.00466459
0.00261878
0.000615471
0.000780457
0.000743323
0.000652613
0.000567952
0.000493815
0.000427308
0.000371203
0.000326535
0.000296109
0.000275065
0.000276573
0.00029094
0.000334729
0.000443202
0.000719976
0.00143966
0.00352074
0.00451278
0.002511
0.000503768
0.000738493
0.000762616
0.000732259
0.000668907
0.000598187
0.000529202
0.000468477
0.000419442
0.000384564
0.000364573
0.000369032
0.000391962
0.000456618
0.000608037
0.000974608
0.0017822
0.00378364
0.00419179
0.00237029
0.000341047
0.000645378
0.000838333
0.000905858
0.000890772
0.0008376
0.00076081
0.000689467
0.000634668
0.000594116
0.000593396
0.000614543
0.000674452
0.000817384
0.00111059
0.00176026
0.00274966
0.00417426
0.00404203
0.00219886
0.000348695
0.000638229
0.00103763
0.0012566
0.00133819
0.00134056
0.00132318
0.0013039
0.00131607
0.00136209
0.00146264
0.00166492
0.001947
0.00241292
0.00301755
0.00396166
0.00481038
0.004737
0.00412547
0.00195886
0.000253627
0.000386062
0.000677802
0.000966066
0.0011872
0.00133713
0.00142305
0.00147725
0.00150394
0.00152259
0.00153017
0.00154251
0.00155358
0.00157563
0.0015937
0.00165264
0.00172601
0.00181937
0.00180148
0.00160567
)
;

boundaryField
{
    movingWall
    {
        Cmu             0.09;
        kappa           0.41;
        E               9.8;
        type            epsilonWallFunction;
        value           nonuniform List<scalar> 
20
(
0.000253627
0.000386062
0.000677802
0.000966066
0.0011872
0.00133713
0.00142305
0.00147725
0.00150394
0.00152259
0.00153017
0.00154251
0.00155358
0.00157563
0.0015937
0.00165264
0.00172601
0.00181937
0.00180148
0.00160567
)
;
    }
    fixedWalls
    {
        Cmu             0.09;
        kappa           0.41;
        E               9.8;
        type            epsilonWallFunction;
        value           nonuniform List<scalar> 
60
(
2.97238e-05
0.000128077
0.000402987
0.000845167
0.0011581
0.0013301
0.0013594
0.00134046
0.00129159
0.00119927
0.00109966
0.00100988
0.000915939
0.000824167
0.000724876
0.000615471
0.000503768
0.000341047
0.000348695
0.000253627
0.000590699
0.00124622
0.00163983
0.0018933
0.00208275
0.00223537
0.00235808
0.00245954
0.00253613
0.00259735
0.00263699
0.00266345
0.00267626
0.00268293
0.00261878
0.002511
0.00237029
0.00219886
0.00195886
0.00160567
2.97238e-05
8.97635e-05
0.000338657
0.000672082
0.000897301
0.00107063
0.00120897
0.00134208
0.0014576
0.00157572
0.00168544
0.00180137
0.00191225
0.00197928
0.00200736
0.00199397
0.00182438
0.00139476
0.000850405
0.000590699
)
;
    }
    frontAndBack
    {
        type            empty;
    }
}


// ************************************************************************* //
