/*--------------------------------*- C++ -*----------------------------------*\
| =========                 |                                                 |
| \\      /  F ield         | OpenFOAM: The Open Source CFD Toolbox           |
|  \\    /   O peration     | Version:  5.x                                   |
|   \\  /    A nd           | Web:      www.OpenFOAM.org                      |
|    \\/     M anipulation  |                                                 |
\*---------------------------------------------------------------------------*/
FoamFile
{
    version     2.0;
    format      ascii;
    class       volScalarField;
    location    "20";
    object      k;
}
// * * * * * * * * * * * * * * * * * * * * * * * * * * * * * * * * * * * * * //

dimensions      [0 2 -2 0 0 0 0];

internalField   nonuniform List<scalar> 
400
(
9.28894e-06
2.80522e-05
0.000105833
0.000210029
0.00028041
0.000334575
0.00037781
0.000419407
0.000455507
0.00049242
0.000526705
0.000562936
0.000597586
0.000618532
0.000627308
0.000623123
0.000570126
0.000435869
0.000265756
0.000184597
4.00251e-05
0.00013236
0.000274225
0.000433179
0.000501255
0.000581685
0.000627769
0.000694867
0.000749901
0.000815415
0.000877673
0.000943225
0.00100172
0.00106542
0.00111452
0.00113662
0.00113742
0.000991151
0.000653388
0.000389451
0.000125936
0.000402393
0.000556833
0.000639683
0.000693056
0.000742916
0.000778631
0.000828189
0.000871331
0.000922688
0.000970317
0.00101936
0.00106687
0.00111869
0.00116608
0.00119403
0.00120219
0.00112853
0.000806619
0.000512457
0.000264117
0.000613899
0.000697581
0.000733894
0.00076034
0.000781042
0.000804341
0.000835955
0.000866174
0.000899455
0.000929494
0.000966657
0.00101394
0.00107294
0.00114222
0.00120112
0.00122512
0.001208
0.000949816
0.000591669
0.000361907
0.000730063
0.000757206
0.000757802
0.000761796
0.00077406
0.000786645
0.000794159
0.000794929
0.000792989
0.000800373
0.000828199
0.000877969
0.000954282
0.00106037
0.00118651
0.00125888
0.00127337
0.0010731
0.000650873
0.000415658
0.000767786
0.000768813
0.000754515
0.00075047
0.000746507
0.000728519
0.000696664
0.000665264
0.00064861
0.000643485
0.000659718
0.000709781
0.000797659
0.000933846
0.00111793
0.00128315
0.0013404
0.00119933
0.000698568
0.000424816
0.000761207
0.000762563
0.000741037
0.000721138
0.000690785
0.00064665
0.000593773
0.000546692
0.000517577
0.000506193
0.000511076
0.000555653
0.000643368
0.000792328
0.00101763
0.00128941
0.0014144
0.00132071
0.000736917
0.000418898
0.000742221
0.000745317
0.00071361
0.000682189
0.000636311
0.000576199
0.000511923
0.000457339
0.000422465
0.00040799
0.000407324
0.000442674
0.000520925
0.000664488
0.000906019
0.00125298
0.00148154
0.00145021
0.000768624
0.000403627
0.000703951
0.000713975
0.000683587
0.000646582
0.000592419
0.000524772
0.000456549
0.000400682
0.000364831
0.000349426
0.000347958
0.000374805
0.000439253
0.000568341
0.000806106
0.00119081
0.00154366
0.00156703
0.000792558
0.000374777
0.000668265
0.00068263
0.000656185
0.000618205
0.000561523
0.000492714
0.00042517
0.000371414
0.000336638
0.000321321
0.000321174
0.000343135
0.000396906
0.000507494
0.000728935
0.00112634
0.00159516
0.00168169
0.000811684
0.000343647
0.000624403
0.000649359
0.000631121
0.000595806
0.0005422
0.000476381
0.000414115
0.000364179
0.000330395
0.000313241
0.000313823
0.000332536
0.000379398
0.000478528
0.00068226
0.00107523
0.00163307
0.0017811
0.000824071
0.000315592
0.000585124
0.00062269
0.000612649
0.000581903
0.000532348
0.000475287
0.000417183
0.000369447
0.000336609
0.000319406
0.00031988
0.00033409
0.00037582
0.000468886
0.000661239
0.00104525
0.00166633
0.00186633
0.000832357
0.000286235
0.000537491
0.000594397
0.000593389
0.000573792
0.000532922
0.000480323
0.000427736
0.000384309
0.000353587
0.000336963
0.000338182
0.000351677
0.000390101
0.000475193
0.000656283
0.00103222
0.00169696
0.00190953
0.000836345
0.000257556
0.000502939
0.000577569
0.000582209
0.000571497
0.000539296
0.000493417
0.000448706
0.000410248
0.000381951
0.000365732
0.000367422
0.000381074
0.000419178
0.000502572
0.000675825
0.00103062
0.00172931
0.00192545
0.000838423
0.000226527
0.000454897
0.00055297
0.000577979
0.000574251
0.000554556
0.000516165
0.000477458
0.000443929
0.000418776
0.000403985
0.000406294
0.000420625
0.00045946
0.0005431
0.000715864
0.00105515
0.00175808
0.00192345
0.000818381
0.000192338
0.000420636
0.000539527
0.000582521
0.000587201
0.000578638
0.000554702
0.000521164
0.000490416
0.000466631
0.00045176
0.000454385
0.000469523
0.000510091
0.000596467
0.000777755
0.00110145
0.00177146
0.00183332
0.000784683
0.000157431
0.000363547
0.000506556
0.000591419
0.00061872
0.000617004
0.000604234
0.000577095
0.000548671
0.000525612
0.000511938
0.000515903
0.000533998
0.000580597
0.000676321
0.00088241
0.00120448
0.00177346
0.00170487
0.000740724
0.00010658
0.000303888
0.000513111
0.000636565
0.000712744
0.000721314
0.000713328
0.000692042
0.000661106
0.000635685
0.000630215
0.000640471
0.000671276
0.000744884
0.000873988
0.00114913
0.00147338
0.00177053
0.00155681
0.000687548
0.000108969
0.000317661
0.000546522
0.000688832
0.0007735
0.000814534
0.00083272
0.000849023
0.000867565
0.000899212
0.000946874
0.00102756
0.00113351
0.00130208
0.00149738
0.00180404
0.00194257
0.00183962
0.00146247
0.000613259
7.92594e-05
0.000120646
0.000211816
0.000301899
0.000371004
0.000417859
0.00044471
0.000461649
0.000469984
0.000475816
0.000478236
0.000482128
0.000485101
0.000492221
0.000499059
0.000516112
0.000539258
0.000568596
0.000562944
0.000501748
)
;

boundaryField
{
    movingWall
    {
        type            kqRWallFunction;
        value           nonuniform List<scalar> 
20
(
7.92594e-05
0.000120646
0.000211816
0.000301899
0.000371004
0.000417859
0.00044471
0.000461649
0.000469984
0.000475816
0.000478236
0.000482128
0.000485101
0.000492221
0.000499059
0.000516112
0.000539258
0.000568596
0.000562944
0.000501748
)
;
    }
    fixedWalls
    {
        type            kqRWallFunction;
        value           nonuniform List<scalar> 
60
(
9.28894e-06
4.00251e-05
0.000125936
0.000264117
0.000361907
0.000415658
0.000424816
0.000418898
0.000403627
0.000374777
0.000343647
0.000315592
0.000286235
0.000257556
0.000226527
0.000192338
0.000157431
0.00010658
0.000108969
7.92594e-05
0.000184597
0.000389451
0.000512457
0.000591669
0.000650873
0.000698568
0.000736917
0.000768624
0.000792558
0.000811684
0.000824071
0.000832357
0.000836345
0.000838423
0.000818381
0.000784683
0.000740724
0.000687548
0.000613259
0.000501748
9.28894e-06
2.80522e-05
0.000105833
0.000210029
0.00028041
0.000334575
0.00037781
0.000419407
0.000455507
0.00049242
0.000526705
0.000562936
0.000597586
0.000618532
0.000627308
0.000623123
0.000570126
0.000435869
0.000265756
0.000184597
)
;
    }
    frontAndBack
    {
        type            empty;
    }
}


// ************************************************************************* //
