/*--------------------------------*- C++ -*----------------------------------*\
| =========                 |                                                 |
| \\      /  F ield         | OpenFOAM: The Open Source CFD Toolbox           |
|  \\    /   O peration     | Version:  5.x                                   |
|   \\  /    A nd           | Web:      www.OpenFOAM.org                      |
|    \\/     M anipulation  |                                                 |
\*---------------------------------------------------------------------------*/
FoamFile
{
    version     2.0;
    format      ascii;
    class       volScalarField;
    location    "20";
    object      nut;
}
// * * * * * * * * * * * * * * * * * * * * * * * * * * * * * * * * * * * * * //

dimensions      [0 2 -1 0 0 0 0];

internalField   nonuniform List<scalar> 
400
(
2.61258e-07
7.88997e-07
2.97662e-06
5.90716e-06
7.88666e-06
9.41006e-06
1.0626e-05
1.1796e-05
1.28113e-05
1.38495e-05
1.48138e-05
1.58328e-05
1.68073e-05
1.73964e-05
1.76432e-05
1.75256e-05
1.6035e-05
1.2259e-05
7.4745e-06
5.19187e-06
1.12573e-06
4.71031e-06
8.13337e-06
1.53179e-05
1.95069e-05
2.57785e-05
2.98942e-05
3.55135e-05
3.98885e-05
4.41459e-05
4.72545e-05
4.95335e-05
5.03485e-05
5.1044e-05
5.02858e-05
4.80498e-05
4.64833e-05
3.5962e-05
1.99494e-05
1.09535e-05
3.542e-06
1.53172e-05
2.40281e-05
3.10875e-05
3.77838e-05
4.42561e-05
4.93936e-05
5.50239e-05
5.78941e-05
6.10655e-05
6.2864e-05
6.41261e-05
6.43979e-05
6.42857e-05
6.29321e-05
5.92465e-05
5.57609e-05
4.79274e-05
2.69016e-05
1.44131e-05
7.42834e-06
2.75151e-05
3.5198e-05
4.22519e-05
4.89411e-05
5.44066e-05
5.86957e-05
6.34243e-05
6.62702e-05
6.92618e-05
7.05105e-05
7.14689e-05
7.19295e-05
7.18845e-05
7.08352e-05
6.70054e-05
6.0708e-05
5.58411e-05
3.54823e-05
1.6641e-05
1.01787e-05
3.4623e-05
4.23864e-05
4.90324e-05
5.57334e-05
6.16879e-05
6.67757e-05
7.04559e-05
7.19357e-05
7.21157e-05
7.23114e-05
7.29285e-05
7.37063e-05
7.44851e-05
7.50352e-05
7.43218e-05
6.63406e-05
6.08263e-05
4.2623e-05
1.83062e-05
1.16905e-05
3.84107e-05
4.64507e-05
5.46443e-05
6.1976e-05
6.77694e-05
7.08719e-05
7.11118e-05
7.06919e-05
7.07859e-05
7.09087e-05
7.14584e-05
7.20982e-05
7.33482e-05
7.51899e-05
7.69843e-05
7.23905e-05
6.44132e-05
4.93004e-05
1.96476e-05
1.1948e-05
3.90599e-05
5.02663e-05
5.92087e-05
6.56315e-05
6.91412e-05
7.03218e-05
6.97281e-05
6.94304e-05
6.9699e-05
7.00121e-05
7.08384e-05
7.09121e-05
7.16366e-05
7.36236e-05
7.70564e-05
7.81591e-05
6.831e-05
5.48443e-05
2.07262e-05
1.17816e-05
4.01352e-05
5.2982e-05
6.1228e-05
6.67257e-05
6.91297e-05
6.93802e-05
6.87574e-05
6.90353e-05
7.01019e-05
7.12223e-05
7.18763e-05
7.1825e-05
7.16148e-05
7.23384e-05
7.59237e-05
8.10712e-05
7.18845e-05
6.00067e-05
2.1618e-05
1.13521e-05
3.97952e-05
5.3477e-05
6.17938e-05
6.68074e-05
6.86992e-05
6.86591e-05
6.84253e-05
6.95605e-05
7.1265e-05
7.26222e-05
7.31014e-05
7.25198e-05
7.1985e-05
7.22782e-05
7.46686e-05
8.09277e-05
7.60295e-05
6.40008e-05
2.22912e-05
1.05407e-05
3.94597e-05
5.32627e-05
6.16652e-05
6.65177e-05
6.81535e-05
6.82196e-05
6.84655e-05
7.00873e-05
7.20518e-05
7.33746e-05
7.36467e-05
7.32619e-05
7.28434e-05
7.27358e-05
7.41753e-05
7.92829e-05
7.98859e-05
6.75467e-05
2.2829e-05
9.66518e-06
3.75562e-05
5.18473e-05
6.05803e-05
6.54891e-05
6.76063e-05
6.77714e-05
6.7964e-05
6.92095e-05
7.10302e-05
7.26615e-05
7.31144e-05
7.3152e-05
7.30588e-05
7.34903e-05
7.46395e-05
7.8753e-05
8.23779e-05
7.02454e-05
2.31774e-05
8.87614e-06
3.51316e-05
5.02734e-05
5.96168e-05
6.48641e-05
6.65173e-05
6.72088e-05
6.75578e-05
6.84838e-05
6.98327e-05
7.10434e-05
7.12565e-05
7.17638e-05
7.27674e-05
7.37073e-05
7.50886e-05
7.86857e-05
8.40846e-05
7.23682e-05
2.34109e-05
8.05046e-06
3.10304e-05
4.72152e-05
5.66963e-05
6.29827e-05
6.59203e-05
6.67037e-05
6.69085e-05
6.73508e-05
6.80347e-05
6.90415e-05
6.93711e-05
7.02139e-05
7.18849e-05
7.40612e-05
7.54986e-05
7.85473e-05
8.50682e-05
7.24964e-05
2.35226e-05
7.24386e-06
2.78853e-05
4.40195e-05
5.38138e-05
6.11989e-05
6.51127e-05
6.6012e-05
6.62721e-05
6.64411e-05
6.66279e-05
6.75892e-05
6.80798e-05
6.92767e-05
7.14608e-05
7.42911e-05
7.65601e-05
7.84112e-05
8.53353e-05
7.21064e-05
2.35809e-05
6.37118e-06
2.35342e-05
3.92256e-05
5.08438e-05
5.85608e-05
6.40625e-05
6.55436e-05
6.60063e-05
6.6195e-05
6.61425e-05
6.70343e-05
6.75759e-05
6.88622e-05
7.1115e-05
7.40056e-05
7.66775e-05
7.76421e-05
8.38827e-05
7.13825e-05
2.30173e-05
5.40959e-06
2.04036e-05
3.52445e-05
4.67962e-05
5.46392e-05
6.10227e-05
6.48069e-05
6.58537e-05
6.6289e-05
6.61819e-05
6.67765e-05
6.71863e-05
6.81952e-05
6.99591e-05
7.2246e-05
7.56154e-05
7.58427e-05
8.02179e-05
6.70312e-05
2.20691e-05
4.42783e-06
1.61071e-05
3.02825e-05
4.29901e-05
5.15069e-05
5.72771e-05
6.20913e-05
6.39806e-05
6.45945e-05
6.46554e-05
6.46983e-05
6.49103e-05
6.54755e-05
6.64413e-05
6.77046e-05
7.1904e-05
7.32632e-05
7.48125e-05
6.24062e-05
2.08331e-05
2.99762e-06
1.28782e-05
2.82649e-05
4.02595e-05
5.13266e-05
5.59056e-05
6.01928e-05
6.25165e-05
6.19781e-05
6.12145e-05
6.02386e-05
6.00745e-05
6.01304e-05
6.10933e-05
6.19012e-05
6.7515e-05
7.10545e-05
6.75878e-05
5.39651e-05
1.93486e-05
3.06478e-06
1.42297e-05
2.5907e-05
3.39837e-05
4.02386e-05
4.45425e-05
4.71654e-05
4.97552e-05
5.14715e-05
5.3427e-05
5.51684e-05
5.70772e-05
5.93918e-05
6.32375e-05
6.6873e-05
7.3936e-05
7.06016e-05
6.42977e-05
4.666e-05
1.72793e-05
2.2292e-06
3.39321e-06
5.95739e-06
8.491e-06
1.04346e-05
1.17524e-05
1.25077e-05
1.29841e-05
1.32184e-05
1.33825e-05
1.3452e-05
1.35625e-05
1.36324e-05
1.38391e-05
1.4065e-05
1.45061e-05
1.51632e-05
1.59929e-05
1.58323e-05
1.4111e-05
)
;

boundaryField
{
    movingWall
    {
        type            nutkWallFunction;
        Cmu             0.09;
        kappa           0.41;
        E               9.8;
        value           uniform 0;
    }
    fixedWalls
    {
        type            nutkWallFunction;
        Cmu             0.09;
        kappa           0.41;
        E               9.8;
        value           uniform 0;
    }
    frontAndBack
    {
        type            empty;
    }
}


// ************************************************************************* //
