/*--------------------------------*- C++ -*----------------------------------*\
| =========                 |                                                 |
| \\      /  F ield         | OpenFOAM: The Open Source CFD Toolbox           |
|  \\    /   O peration     | Version:  5.x                                   |
|   \\  /    A nd           | Web:      www.OpenFOAM.org                      |
|    \\/     M anipulation  |                                                 |
\*---------------------------------------------------------------------------*/
FoamFile
{
    version     2.0;
    format      ascii;
    class       volScalarField;
    location    "20";
    object      p;
}
// * * * * * * * * * * * * * * * * * * * * * * * * * * * * * * * * * * * * * //

dimensions      [0 2 -2 0 0 0 0];

internalField   nonuniform List<scalar> 
400
(
-4.38997e-09
-8.49254e-05
-0.000149781
-0.0004173
-0.00128392
-0.00271895
-0.00439216
-0.00599762
-0.00729905
-0.00815982
-0.0084662
-0.00811218
-0.0070937
-0.0054095
-0.00306841
-0.000251382
0.00265661
0.00506455
0.0064674
0.00678062
0.000101102
-1.38156e-06
-0.000241294
-0.000868758
-0.00199068
-0.00351356
-0.00517945
-0.00674396
-0.00801915
-0.00888013
-0.00922223
-0.00897843
-0.00809218
-0.00653982
-0.00436201
-0.00167952
0.00119353
0.0037539
0.00547839
0.00619594
0.000267049
-6.87382e-05
-0.000702138
-0.00176213
-0.00321798
-0.00488268
-0.00655774
-0.00807505
-0.00930366
-0.0101156
-0.0104325
-0.010219
-0.00944565
-0.00810179
-0.00620611
-0.00383622
-0.00118133
0.00141716
0.0034806
0.00454121
2.70988e-05
-0.00053926
-0.00159024
-0.00306946
-0.00480268
-0.00658539
-0.00825865
-0.00969994
-0.0108099
-0.0115219
-0.0117976
-0.0116111
-0.0109424
-0.00979246
-0.0081769
-0.00614528
-0.00380383
-0.00136464
0.000778242
0.00196412
-0.000789235
-0.00155538
-0.00290634
-0.00463404
-0.00649728
-0.00830051
-0.00991245
-0.0112453
-0.0122425
-0.0128709
-0.0131102
-0.0129468
-0.0123752
-0.011402
-0.0100433
-0.00833305
-0.00633283
-0.00417675
-0.00216436
-0.000994687
-0.00214634
-0.00301257
-0.00447874
-0.00626358
-0.00811888
-0.00985903
-0.0113723
-0.0125952
-0.0134955
-0.014055
-0.0142642
-0.0141208
-0.0136297
-0.0128039
-0.0116629
-0.0102336
-0.00855888
-0.00673533
-0.00502704
-0.00390751
-0.00376059
-0.00463678
-0.00606934
-0.00778788
-0.00955253
-0.0111858
-0.0125883
-0.0137094
-0.0145279
-0.0150334
-0.0152225
-0.0150986
-0.0146717
-0.0139605
-0.0129894
-0.011786
-0.0103894
-0.00888058
-0.00750097
-0.00648207
-0.00529743
-0.00613138
-0.00746235
-0.009068
-0.0107151
-0.0122342
-0.0135335
-0.0145692
-0.0153243
-0.0157914
-0.0159696
-0.0158637
-0.0154859
-0.0148582
-0.014011
-0.0129776
-0.0117986
-0.0105511
-0.009462
-0.00854196
-0.00651068
-0.00729286
-0.00850964
-0.0100056
-0.0115464
-0.0129698
-0.0141893
-0.0151633
-0.0158753
-0.0163184
-0.0164917
-0.0163996
-0.0160548
-0.0154812
-0.0147151
-0.0137989
-0.0127785
-0.0117189
-0.0108512
-0.0100076
-0.00729238
-0.00799854
-0.00912357
-0.0105448
-0.0120099
-0.0133702
-0.0145419
-0.0154821
-0.016172
-0.0166038
-0.0167755
-0.0166909
-0.0163624
-0.0158151
-0.0150905
-0.0142413
-0.0133242
-0.0123759
-0.0116769
-0.0108273
-0.00759428
-0.00822014
-0.00928883
-0.0106651
-0.0120904
-0.0134249
-0.0145831
-0.0155176
-0.0162061
-0.0166382
-0.0168108
-0.0167267
-0.016398
-0.0158509
-0.0151313
-0.0143011
-0.0134311
-0.0125114
-0.01197
-0.0109797
-0.00741115
-0.0079885
-0.00902018
-0.0103737
-0.0117915
-0.0131328
-0.0143087
-0.0152649
-0.0159725
-0.0164173
-0.0165937
-0.0165032
-0.0161583
-0.0155866
-0.0148389
-0.0139849
-0.0130992
-0.0121585
-0.0117746
-0.01048
-0.00682802
-0.00737733
-0.00837936
-0.00970414
-0.0111324
-0.0125042
-0.0137242
-0.0147274
-0.0154745
-0.0159449
-0.0161294
-0.0160274
-0.015652
-0.0150329
-0.014226
-0.0133056
-0.0123623
-0.0114053
-0.011031
-0.00943729
-0.00597286
-0.00648615
-0.00743897
-0.00871256
-0.01014
-0.0115547
-0.0128414
-0.013916
-0.0147242
-0.0152356
-0.0154357
-0.0153206
-0.0149034
-0.0142165
-0.013322
-0.0122995
-0.0112673
-0.0102538
-0.00978725
-0.00799242
-0.00500454
-0.00544648
-0.00628949
-0.00746732
-0.00886777
-0.0103275
-0.011698
-0.0128655
-0.0137554
-0.0143247
-0.0145519
-0.0144282
-0.0139636
-0.0131936
-0.0121866
-0.0110249
-0.00985446
-0.00870792
-0.00810978
-0.00614303
-0.00411558
-0.00439765
-0.00501244
-0.00602134
-0.00736825
-0.00887442
-0.010344
-0.011625
-0.0126192
-0.0132673
-0.0135398
-0.0134244
-0.0129211
-0.0120647
-0.0109257
-0.00957953
-0.00818893
-0.00678227
-0.00590979
-0.00345609
-0.00348921
-0.00345991
-0.00371724
-0.00449452
-0.00577048
-0.00732201
-0.00889637
-0.0103032
-0.01142
-0.0121679
-0.0125056
-0.0124119
-0.0119051
-0.0109786
-0.00969921
-0.0081115
-0.00636967
-0.00444797
-0.00276064
0.00120882
-0.00317588
-0.00263676
-0.00245122
-0.00298707
-0.00419475
-0.00578524
-0.00746433
-0.00900895
-0.0102696
-0.0111461
-0.0115853
-0.0115553
-0.0110617
-0.0100941
-0.00868513
-0.00679386
-0.00451076
-0.00157756
0.00205668
0.00932509
-0.0031253
-0.00190019
-0.00137796
-0.00176568
-0.00292275
-0.00453233
-0.00629117
-0.00795578
-0.00934941
-0.0103542
-0.0109028
-0.0109593
-0.0105108
-0.00952748
-0.00801359
-0.00578658
-0.00270841
0.00195791
0.00906799
0.0211748
-0.00351499
-0.000725123
2.87553e-05
-0.000503341
-0.00171245
-0.00336019
-0.00519525
-0.00696778
-0.00847993
-0.00959741
-0.0102399
-0.0103599
-0.00994362
-0.00893106
-0.00742044
-0.00486868
-0.000861959
0.00623112
0.017779
0.0334005
)
;

boundaryField
{
    movingWall
    {
        type            zeroGradient;
    }
    fixedWalls
    {
        type            zeroGradient;
    }
    frontAndBack
    {
        type            empty;
    }
}


// ************************************************************************* //
