/*--------------------------------*- C++ -*----------------------------------*\
| =========                 |                                                 |
| \\      /  F ield         | OpenFOAM: The Open Source CFD Toolbox           |
|  \\    /   O peration     | Version:  5.x                                   |
|   \\  /    A nd           | Web:      www.OpenFOAM.org                      |
|    \\/     M anipulation  |                                                 |
\*---------------------------------------------------------------------------*/
FoamFile
{
    version     2.0;
    format      ascii;
    class       surfaceScalarField;
    location    "20";
    object      phi;
}
// * * * * * * * * * * * * * * * * * * * * * * * * * * * * * * * * * * * * * //

dimensions      [0 3 -1 0 0 0 0];

internalField   nonuniform List<scalar> 
760
(
1.41378e-07
-1.41376e-07
-1.16773e-07
2.58151e-07
-9.24375e-07
8.07602e-07
-2.18997e-06
1.2656e-06
-3.57321e-06
1.38324e-06
-4.82063e-06
1.24742e-06
-5.88036e-06
1.05973e-06
-6.72374e-06
8.43376e-07
-7.34447e-06
6.20735e-07
-7.74576e-06
4.01292e-07
-7.93971e-06
1.93945e-07
-7.91601e-06
-2.36984e-08
-7.69562e-06
-2.20392e-07
-7.26552e-06
-4.30101e-07
-6.56529e-06
-7.00229e-07
-5.57142e-06
-9.93871e-07
-4.23376e-06
-1.33766e-06
-2.61287e-06
-1.62089e-06
-9.51305e-07
-1.66156e-06
-9.51305e-07
-4.06759e-07
2.65383e-07
-1.3923e-06
1.24369e-06
-2.72335e-06
2.13866e-06
-3.96735e-06
2.5096e-06
-5.02968e-06
2.44557e-06
-5.97196e-06
2.1897e-06
-6.7492e-06
1.83697e-06
-7.35411e-06
1.44829e-06
-7.79895e-06
1.06557e-06
-8.08666e-06
6.89004e-07
-8.19993e-06
3.07216e-07
-8.1405e-06
-8.31369e-08
-7.90059e-06
-4.60295e-07
-7.46156e-06
-8.69133e-07
-6.82267e-06
-1.33912e-06
-5.94237e-06
-1.87417e-06
-4.79185e-06
-2.48819e-06
-3.31722e-06
-3.09552e-06
-1.58766e-06
-3.39113e-06
-2.53896e-06
-1.00145e-06
1.26684e-06
-2.30525e-06
2.54748e-06
-3.46527e-06
3.29868e-06
-4.44249e-06
3.48681e-06
-5.26971e-06
3.2728e-06
-5.95581e-06
2.8758e-06
-6.50115e-06
2.38231e-06
-6.89945e-06
1.84658e-06
-7.15718e-06
1.3233e-06
-7.28123e-06
8.13052e-07
-7.28836e-06
3.14354e-07
-7.18832e-06
-1.83182e-07
-6.96115e-06
-6.87469e-07
-6.58913e-06
-1.24114e-06
-6.06218e-06
-1.86608e-06
-5.35336e-06
-2.58298e-06
-4.44185e-06
-3.3997e-06
-3.2752e-06
-4.26217e-06
-1.7896e-06
-4.87673e-06
-4.32856e-06
-1.2325e-06
2.49933e-06
-2.43698e-06
3.75197e-06
-3.42378e-06
4.28548e-06
-4.2029e-06
4.26593e-06
-4.82497e-06
3.89487e-06
-5.30584e-06
3.35667e-06
-5.65885e-06
2.73532e-06
-5.90719e-06
2.09492e-06
-6.05934e-06
1.47546e-06
-6.1221e-06
8.75809e-07
-6.09844e-06
2.90696e-07
-5.98776e-06
-2.93859e-07
-5.77911e-06
-8.96119e-07
-5.47074e-06
-1.54951e-06
-5.05235e-06
-2.28447e-06
-4.50348e-06
-3.13185e-06
-3.79803e-06
-4.10515e-06
-2.89074e-06
-5.16946e-06
-1.64583e-06
-6.12164e-06
-5.97438e-06
-1.16756e-06
3.66689e-06
-2.19696e-06
4.78136e-06
-3.00862e-06
5.09714e-06
-3.63146e-06
4.88877e-06
-4.10349e-06
4.3669e-06
-4.44843e-06
3.70161e-06
-4.69138e-06
2.97826e-06
-4.8549e-06
2.25844e-06
-4.94565e-06
1.56621e-06
-4.96788e-06
8.98037e-07
-4.92225e-06
2.45064e-07
-4.80807e-06
-4.08033e-07
-4.62243e-06
-1.08177e-06
-4.3668e-06
-1.80514e-06
-4.03846e-06
-2.61281e-06
-3.62488e-06
-3.54543e-06
-3.09311e-06
-4.63692e-06
-2.38314e-06
-5.87942e-06
-1.38979e-06
-7.11499e-06
-7.36418e-06
-9.63093e-07
4.62999e-06
-1.79653e-06
5.6148e-06
-2.44861e-06
5.74922e-06
-2.93837e-06
5.37853e-06
-3.29768e-06
4.7262e-06
-3.55281e-06
3.95674e-06
-3.72962e-06
3.15508e-06
-3.84445e-06
2.37327e-06
-3.90274e-06
1.6245e-06
-3.90719e-06
9.02491e-07
-3.85785e-06
1.95717e-07
-3.75374e-06
-5.1214e-07
-3.59449e-06
-1.24101e-06
-3.38327e-06
-2.01637e-06
-3.12376e-06
-2.87232e-06
-2.81418e-06
-3.85501e-06
-2.43432e-06
-5.01678e-06
-1.91852e-06
-6.39523e-06
-1.13525e-06
-7.89826e-06
-8.49943e-06
-7.31145e-07
5.36113e-06
-1.35876e-06
6.24242e-06
-1.85485e-06
6.24531e-06
-2.22421e-06
5.74789e-06
-2.49393e-06
4.99592e-06
-2.68593e-06
4.14874e-06
-2.81998e-06
3.28913e-06
-2.90709e-06
2.46039e-06
-2.9517e-06
1.66911e-06
-2.95541e-06
9.06203e-07
-2.91696e-06
1.57263e-07
-2.83436e-06
-5.94738e-07
-2.70701e-06
-1.36837e-06
-2.53866e-06
-2.18472e-06
-2.3371e-06
-3.07387e-06
-2.10754e-06
-4.08457e-06
-1.84007e-06
-5.28424e-06
-1.48079e-06
-6.75452e-06
-9.31037e-07
-8.44801e-06
-9.43046e-06
-4.82767e-07
5.8439e-06
-9.25416e-07
6.68507e-06
-1.27238e-06
6.59228e-06
-1.53282e-06
6.00833e-06
-1.72655e-06
5.18965e-06
-1.86828e-06
4.29047e-06
-1.97063e-06
3.39148e-06
-2.04015e-06
2.52991e-06
-2.07974e-06
1.7087e-06
-2.08983e-06
9.16292e-07
-2.06842e-06
1.3585e-07
-2.01305e-06
-6.50105e-07
-1.92284e-06
-1.45858e-06
-1.80123e-06
-2.30633e-06
-1.65787e-06
-3.21723e-06
-1.5032e-06
-4.23925e-06
-1.33314e-06
-5.4543e-06
-1.10323e-06
-6.98443e-06
-7.25487e-07
-8.82575e-06
-1.0156e-05
-2.62243e-07
6.10614e-06
-5.17865e-07
6.94069e-06
-7.17323e-07
6.79173e-06
-8.76661e-07
6.16767e-06
-1.00081e-06
5.3138e-06
-1.09669e-06
4.38636e-06
-1.17042e-06
3.46521e-06
-1.22456e-06
2.58405e-06
-1.26027e-06
1.74442e-06
-1.27729e-06
9.33312e-07
-1.27391e-06
1.32462e-07
-1.24796e-06
-6.76055e-07
-1.19872e-06
-1.50782e-06
-1.12918e-06
-2.37586e-06
-1.04889e-06
-3.29751e-06
-9.70847e-07
-4.31729e-06
-8.94721e-07
-5.53043e-06
-7.86542e-07
-7.09261e-06
-5.68155e-07
-9.04414e-06
-1.07241e-05
-4.83454e-08
6.15449e-06
-1.30605e-07
7.02295e-06
-1.97553e-07
6.85868e-06
-2.56575e-07
6.22669e-06
-3.09306e-07
5.36653e-06
-3.57606e-07
4.43466e-06
-4.00811e-07
3.50841e-06
-4.3758e-07
2.62081e-06
-4.67332e-07
1.77417e-06
-4.89588e-07
9.55569e-07
-5.03566e-07
1.4644e-07
-5.08176e-07
-6.71444e-07
-5.03338e-07
-1.51266e-06
-4.91498e-07
-2.3877e-06
-4.81019e-07
-3.30799e-06
-4.84894e-07
-4.31342e-06
-5.07325e-07
-5.50799e-06
-5.10649e-07
-7.08928e-06
-4.23127e-07
-9.13166e-06
-1.11472e-05
1.68982e-07
5.98551e-06
2.56426e-07
6.9355e-06
3.21887e-07
6.79322e-06
3.50672e-07
6.1979e-06
3.65321e-07
5.35188e-06
3.65991e-07
4.43398e-06
3.56662e-07
3.51774e-06
3.40764e-07
2.63671e-06
3.19885e-07
1.79505e-06
2.94369e-07
9.81085e-07
2.63916e-07
1.76893e-07
2.28206e-07
-6.35734e-07
1.86412e-07
-1.47087e-06
1.36507e-07
-2.3378e-06
7.17447e-08
-3.24323e-06
-2.09915e-08
-4.22068e-06
-1.42854e-07
-5.38613e-06
-2.65852e-07
-6.96628e-06
-3.11345e-07
-9.08617e-06
-1.14586e-05
3.77504e-07
5.608e-06
6.25605e-07
6.6874e-06
8.15231e-07
6.6036e-06
9.41984e-07
6.07115e-06
1.03035e-06
5.26351e-06
1.08664e-06
4.3777e-06
1.11722e-06
3.48715e-06
1.12705e-06
2.62689e-06
1.11852e-06
1.80358e-06
1.09183e-06
1.00777e-06
1.04546e-06
2.23259e-07
9.77592e-07
-5.67863e-07
8.85851e-07
-1.37913e-06
7.68168e-07
-2.22011e-06
6.20364e-07
-3.09543e-06
4.3448e-07
-4.0348e-06
1.98397e-07
-5.15005e-06
-6.70455e-08
-6.70084e-06
-1.71839e-07
-8.98137e-06
-1.16304e-05
5.77279e-07
5.03072e-06
9.84252e-07
6.28043e-06
1.29367e-06
6.29418e-06
1.52163e-06
5.8432e-06
1.69028e-06
5.09486e-06
1.81105e-06
4.25692e-06
1.89003e-06
3.40818e-06
1.93253e-06
2.58439e-06
1.94142e-06
1.7947e-06
1.91672e-06
1.03247e-06
1.8558e-06
2.84171e-07
1.75565e-06
-4.67708e-07
1.61241e-06
-1.23588e-06
1.42336e-06
-2.03107e-06
1.18623e-06
-2.8583e-06
8.95624e-07
-3.74419e-06
5.42211e-07
-4.79664e-06
1.87398e-07
-6.34603e-06
-1.43915e-08
-8.77958e-06
-1.16448e-05
7.46408e-07
4.28431e-06
1.30289e-06
5.72395e-06
1.73043e-06
5.86663e-06
2.07598e-06
5.49765e-06
2.34055e-06
4.83029e-06
2.53926e-06
4.05821e-06
2.67856e-06
3.26888e-06
2.76353e-06
2.49942e-06
2.79717e-06
1.76106e-06
2.77932e-06
1.05032e-06
2.70629e-06
3.57203e-07
2.57365e-06
-3.35073e-07
2.37723e-06
-1.03946e-06
2.11289e-06
-1.76672e-06
1.77953e-06
-2.52494e-06
1.37961e-06
-3.34428e-06
9.14358e-07
-4.33138e-06
4.59704e-07
-5.89138e-06
1.51424e-07
-8.4713e-06
-1.14934e-05
8.89591e-07
3.39472e-06
1.56402e-06
5.04952e-06
2.11446e-06
5.31619e-06
2.58693e-06
5.02518e-06
2.96706e-06
4.45016e-06
3.26015e-06
3.76513e-06
3.47397e-06
3.05506e-06
3.61387e-06
2.35952e-06
3.68226e-06
1.69266e-06
3.67908e-06
1.05351e-06
3.59922e-06
4.37059e-07
3.43537e-06
-1.71226e-07
3.18624e-06
-7.90329e-07
2.84496e-06
-1.42544e-06
2.41054e-06
-2.09051e-06
1.89465e-06
-2.82839e-06
1.30475e-06
-3.74149e-06
7.23734e-07
-5.31036e-06
2.99343e-07
-8.04691e-06
-1.1194e-05
9.10539e-07
2.48419e-06
1.69504e-06
4.26502e-06
2.39221e-06
4.61902e-06
3.01303e-06
4.40436e-06
3.5334e-06
3.92978e-06
3.94444e-06
3.35409e-06
4.25198e-06
2.74752e-06
4.46273e-06
2.14877e-06
4.5784e-06
1.57699e-06
4.59969e-06
1.03222e-06
4.52339e-06
5.13361e-07
4.33414e-06
1.80222e-08
4.03882e-06
-4.95005e-07
3.62632e-06
-1.01295e-06
3.09392e-06
-1.55811e-06
2.46079e-06
-2.19526e-06
1.73589e-06
-3.01659e-06
1.01525e-06
-4.58973e-06
4.60964e-07
-7.49262e-06
-1.07331e-05
8.08026e-07
1.67616e-06
1.65753e-06
3.41551e-06
2.52878e-06
3.74777e-06
3.32293e-06
3.61022e-06
4.00068e-06
3.25203e-06
4.5505e-06
2.80427e-06
4.97177e-06
2.32626e-06
5.26955e-06
1.85098e-06
5.44573e-06
1.40081e-06
5.50175e-06
9.76199e-07
5.43421e-06
5.809e-07
5.25257e-06
1.99665e-07
4.9286e-06
-1.71035e-07
4.47469e-06
-5.59039e-07
3.87343e-06
-9.56848e-07
3.15106e-06
-1.47289e-06
2.30569e-06
-2.17122e-06
1.43883e-06
-3.72287e-06
6.72443e-07
-6.72623e-06
-1.00606e-05
3.77736e-07
1.29842e-06
1.35384e-06
2.43941e-06
2.40179e-06
2.69982e-06
3.3895e-06
2.62251e-06
4.2432e-06
2.39833e-06
4.9522e-06
2.09526e-06
5.51212e-06
1.76634e-06
5.92309e-06
1.44001e-06
6.18998e-06
1.13392e-06
6.31832e-06
8.47858e-07
6.31019e-06
5.89024e-07
6.17233e-06
3.37526e-07
5.89901e-06
1.02283e-07
5.48683e-06
-1.46857e-07
4.90559e-06
-3.7561e-07
4.19603e-06
-7.63332e-07
3.31296e-06
-1.28814e-06
2.33552e-06
-2.74543e-06
1.14631e-06
-5.53703e-06
-8.91433e-06
-5.31378e-07
1.8298e-06
6.04573e-07
1.30346e-06
2.00059e-06
1.3038e-06
3.27247e-06
1.35063e-06
4.36815e-06
1.30265e-06
5.29366e-06
1.16976e-06
6.04749e-06
1.0125e-06
6.63061e-06
8.56891e-07
7.05463e-06
7.09904e-07
7.32803e-06
5.74458e-07
7.46557e-06
4.51488e-07
7.46973e-06
3.33361e-07
7.34671e-06
2.25308e-07
7.09275e-06
1.07103e-07
6.70252e-06
1.46215e-08
6.17441e-06
-2.3523e-07
5.45913e-06
-5.72851e-07
4.47513e-06
-1.76144e-06
2.4899e-06
-3.55179e-06
-6.42443e-06
1.8298e-06
3.13326e-06
4.43707e-06
5.78769e-06
7.09034e-06
8.2601e-06
9.2726e-06
1.01295e-05
1.08394e-05
1.14139e-05
1.18653e-05
1.21987e-05
1.2424e-05
1.25311e-05
1.25457e-05
1.23105e-05
1.17377e-05
9.97622e-06
6.42443e-06
)
;

boundaryField
{
    movingWall
    {
        type            calculated;
        value           uniform 0;
    }
    fixedWalls
    {
        type            calculated;
        value           uniform 0;
    }
    frontAndBack
    {
        type            empty;
        value           nonuniform 0();
    }
}


// ************************************************************************* //
