/*--------------------------------*- C++ -*----------------------------------*\
| =========                 |                                                 |
| \\      /  F ield         | OpenFOAM: The Open Source CFD Toolbox           |
|  \\    /   O peration     | Version:  5.x                                   |
|   \\  /    A nd           | Web:      www.OpenFOAM.org                      |
|    \\/     M anipulation  |                                                 |
\*---------------------------------------------------------------------------*/
FoamFile
{
    version     2.0;
    format      ascii;
    class       volVectorField;
    location    "20";
    object      U;
}
// * * * * * * * * * * * * * * * * * * * * * * * * * * * * * * * * * * * * * //

dimensions      [0 1 -1 0 0 0 0];

internalField   nonuniform List<vector> 
400
(
(0.0026646 -0.00358466 0)
(0.00205018 -0.000642242 0)
(-0.00541153 0.00488624 0)
(-0.0271192 0.0107066 0)
(-0.0614297 0.0137352 0)
(-0.0876032 0.0120048 0)
(-0.111217 0.0102737 0)
(-0.128891 0.00791018 0)
(-0.143041 0.00577651 0)
(-0.152506 0.00341079 0)
(-0.157942 0.00141355 0)
(-0.159861 -0.000750898 0)
(-0.157493 -0.00418518 0)
(-0.15006 -0.00648472 0)
(-0.137594 -0.00986462 0)
(-0.119046 -0.0125921 0)
(-0.0950924 -0.0157468 0)
(-0.0664249 -0.0169505 0)
(-0.0359365 -0.0142375 0)
(-0.00870324 -0.00198289 0)
(-0.00238377 -0.00156461 0)
(-0.0131944 0.0128803 0)
(-0.0387967 0.0306897 0)
(-0.0680167 0.0394178 0)
(-0.0926288 0.0385528 0)
(-0.112695 0.034692 0)
(-0.129772 0.0293306 0)
(-0.142475 0.023543 0)
(-0.152925 0.0170264 0)
(-0.160092 0.0108358 0)
(-0.164097 0.00489784 0)
(-0.164532 -0.00107467 0)
(-0.161274 -0.00755089 0)
(-0.154291 -0.014664 0)
(-0.143018 -0.0230985 0)
(-0.126835 -0.0326901 0)
(-0.105815 -0.0432276 0)
(-0.0800542 -0.051964 0)
(-0.0496787 -0.0524713 0)
(-0.017598 -0.031137 0)
(-0.00903791 0.0150558 0)
(-0.0319646 0.0403782 0)
(-0.0581653 0.0557724 0)
(-0.0810867 0.060152 0)
(-0.0991168 0.0568001 0)
(-0.114017 0.0499019 0)
(-0.126018 0.0411888 0)
(-0.135174 0.0318417 0)
(-0.141783 0.023071 0)
(-0.14513 0.0143818 0)
(-0.146436 0.00563843 0)
(-0.145374 -0.00319909 0)
(-0.142244 -0.012352 0)
(-0.136045 -0.022298 0)
(-0.126876 -0.0336345 0)
(-0.114008 -0.0467518 0)
(-0.097137 -0.0618769 0)
(-0.0760738 -0.0777229 0)
(-0.0496189 -0.087718 0)
(-0.020363 -0.0734483 0)
(-0.0131953 0.0384508 0)
(-0.0378046 0.063699 0)
(-0.0606671 0.0759662 0)
(-0.0784185 0.0772553 0)
(-0.0918929 0.0714087 0)
(-0.102664 0.0620726 0)
(-0.110678 0.0509359 0)
(-0.116505 0.0392678 0)
(-0.120317 0.027816 0)
(-0.122343 0.0166093 0)
(-0.122733 0.0057299 0)
(-0.121351 -0.00519477 0)
(-0.118147 -0.0165419 0)
(-0.112898 -0.0288626 0)
(-0.105559 -0.0427452 0)
(-0.0957253 -0.0587285 0)
(-0.0827108 -0.0769873 0)
(-0.0658698 -0.0966904 0)
(-0.0436543 -0.113151 0)
(-0.0187744 -0.108011 0)
(-0.0134997 0.060519 0)
(-0.0359123 0.0846906 0)
(-0.0544453 0.0933112 0)
(-0.0683886 0.0913121 0)
(-0.078723 0.0826342 0)
(-0.086561 0.0707204 0)
(-0.0920841 0.0572838 0)
(-0.0960009 0.0436364 0)
(-0.0984417 0.030413 0)
(-0.0995357 0.0176537 0)
(-0.0992789 0.00523044 0)
(-0.0976495 -0.00722033 0)
(-0.0946179 -0.0201004 0)
(-0.0901538 -0.0340177 0)
(-0.0842653 -0.0496584 0)
(-0.0768264 -0.0677742 0)
(-0.0671718 -0.0888951 0)
(-0.0541908 -0.112588 0)
(-0.035958 -0.135105 0)
(-0.0162799 -0.137278 0)
(-0.0116008 0.0810583 0)
(-0.0300849 0.103095 0)
(-0.0446431 0.107994 0)
(-0.0556279 0.102586 0)
(-0.0635109 0.0910372 0)
(-0.0692926 0.0767437 0)
(-0.0733031 0.0614687 0)
(-0.0761256 0.0463976 0)
(-0.0777934 0.0319241 0)
(-0.0783887 0.017962 0)
(-0.077916 0.00431006 0)
(-0.0763565 -0.00935311 0)
(-0.0736891 -0.0234269 0)
(-0.0699384 -0.0384693 0)
(-0.065183 -0.0551884 0)
(-0.0594533 -0.0744719 0)
(-0.0524243 -0.0972647 0)
(-0.0429863 -0.123921 0)
(-0.0303208 -0.152157 0)
(-0.010842 -0.161083 0)
(-0.00951667 0.0983934 0)
(-0.0228794 0.118021 0)
(-0.0339988 0.119777 0)
(-0.0422834 0.111301 0)
(-0.0481238 0.0973291 0)
(-0.0524052 0.0811636 0)
(-0.0554161 0.0645269 0)
(-0.0575505 0.0483839 0)
(-0.0588157 0.0329309 0)
(-0.0592765 0.0180206 0)
(-0.0589123 0.00340248 0)
(-0.057683 -0.0112574 0)
(-0.0555476 -0.0263337 0)
(-0.0525428 -0.0422934 0)
(-0.0487884 -0.0597976 0)
(-0.0444016 -0.0798143 0)
(-0.0393292 -0.103562 0)
(-0.0325822 -0.132352 0)
(-0.0249268 -0.164803 0)
(-0.00771135 -0.181274 0)
(-0.00662487 0.11166 0)
(-0.0154715 0.129344 0)
(-0.0235161 0.128578 0)
(-0.0292767 0.117761 0)
(-0.0333518 0.102024 0)
(-0.0364136 0.0845154 0)
(-0.038655 0.0668863 0)
(-0.0403059 0.0499379 0)
(-0.0413553 0.0337598 0)
(-0.0418371 0.0181473 0)
(-0.0417134 0.00279163 0)
(-0.0409268 -0.0126533 0)
(-0.0394288 -0.0285312 0)
(-0.0372545 -0.0452164 0)
(-0.0345421 -0.0632583 0)
(-0.0314671 -0.0836419 0)
(-0.0281222 -0.107847 0)
(-0.0236907 -0.138012 0)
(-0.0203345 -0.173588 0)
(-0.00406367 -0.197101 0)
(-0.00422158 0.119915 0)
(-0.00853946 0.136611 0)
(-0.0135227 0.134256 0)
(-0.0169041 0.122089 0)
(-0.0193586 0.105265 0)
(-0.021323 0.0869242 0)
(-0.0228644 0.0686627 0)
(-0.0240834 0.0511811 0)
(-0.0249476 0.0345187 0)
(-0.0254624 0.0184258 0)
(-0.0255884 0.00255137 0)
(-0.0252712 -0.013462 0)
(-0.0244696 -0.0299294 0)
(-0.0232107 -0.0471438 0)
(-0.0216425 -0.0655166 0)
(-0.0199751 -0.0859959 0)
(-0.0184062 -0.110354 0)
(-0.0159323 -0.141391 0)
(-0.0166504 -0.179352 0)
(-0.00159635 -0.209922 0)
(-0.000933872 0.12377 0)
(-0.00194651 0.140611 0)
(-0.00409809 0.137258 0)
(-0.00514253 0.124437 0)
(-0.00603468 0.107159 0)
(-0.0069059 0.0884425 0)
(-0.00771302 0.0698755 0)
(-0.00846181 0.0521174 0)
(-0.00909645 0.035195 0)
(-0.00960154 0.0188394 0)
(-0.00994778 0.00267669 0)
(-0.0101015 -0.0136586 0)
(-0.0100442 -0.0304613 0)
(-0.00979543 -0.0479565 0)
(-0.00949165 -0.0664249 0)
(-0.00935449 -0.0867262 0)
(-0.00978553 -0.1109 0)
(-0.00894781 -0.142363 0)
(-0.0136242 -0.182153 0)
(0.00124361 -0.219394 0)
(0.00152915 0.122466 0)
(0.00408538 0.140718 0)
(0.00510869 0.137274 0)
(0.00623046 0.124702 0)
(0.00687015 0.107526 0)
(0.00714558 0.0889293 0)
(0.00714881 0.0704253 0)
(0.00694668 0.0526726 0)
(0.006611 0.0357304 0)
(0.00616825 0.0193458 0)
(0.00563409 0.00314808 0)
(0.0050147 -0.0132302 0)
(0.00429665 -0.030071 0)
(0.0034604 -0.0475648 0)
(0.00237069 -0.0658828 0)
(0.000859069 -0.0857613 0)
(-0.001754 -0.10942 0)
(-0.00242222 -0.140957 0)
(-0.0112052 -0.182755 0)
(0.00374269 -0.226285 0)
(0.00362023 0.117948 0)
(0.0100966 0.137635 0)
(0.0136787 0.135061 0)
(0.017127 0.123511 0)
(0.0194866 0.1067 0)
(0.0210434 0.0885098 0)
(0.0219999 0.0703255 0)
(0.022461 0.0528198 0)
(0.0225131 0.0360912 0)
(0.0221913 0.0199211 0)
(0.021499 0.00396028 0)
(0.0204177 -0.0121543 0)
(0.0188949 -0.0287039 0)
(0.0169141 -0.0458688 0)
(0.0143082 -0.0637495 0)
(0.0110215 -0.0829684 0)
(0.00619635 -0.105789 0)
(0.00390862 -0.137085 0)
(-0.0090533 -0.181155 0)
(0.0071124 -0.230389 0)
(0.00597274 0.108895 0)
(0.0156009 0.131046 0)
(0.0222458 0.129671 0)
(0.0276512 0.119796 0)
(0.0319271 0.104056 0)
(0.0349232 0.0867185 0)
(0.0370035 0.0692512 0)
(0.0382859 0.0523411 0)
(0.0388514 0.0361439 0)
(0.0387367 0.0204962 0)
(0.0379326 0.00509318 0)
(0.0364054 -0.0104079 0)
(0.0340536 -0.0262842 0)
(0.0308697 -0.0427395 0)
(0.02661 -0.0598495 0)
(0.0214773 -0.0781582 0)
(0.0144127 -0.0998834 0)
(0.0100991 -0.130927 0)
(-0.00689628 -0.177737 0)
(0.0111268 -0.232608 0)
(0.0078493 0.0960395 0)
(0.0206064 0.122139 0)
(0.0299483 0.123027 0)
(0.0376272 0.114522 0)
(0.0439685 0.100187 0)
(0.0487095 0.0839086 0)
(0.0521865 0.067379 0)
(0.0545196 0.0513112 0)
(0.055776 0.0359106 0)
(0.0559953 0.0210745 0)
(0.0551521 0.00655404 0)
(0.0532081 -0.00796879 0)
(0.0499991 -0.0227662 0)
(0.0455736 -0.0380836 0)
(0.0395347 -0.0540446 0)
(0.0324798 -0.0711875 0)
(0.0229047 -0.0917003 0)
(0.0165215 -0.122891 0)
(-0.00433884 -0.172923 0)
(0.0160657 -0.23321 0)
(0.00972359 0.0796549 0)
(0.0248281 0.109074 0)
(0.0366279 0.112585 0)
(0.0466732 0.105888 0)
(0.0552911 0.0934792 0)
(0.0621388 0.0788461 0)
(0.067344 0.0637808 0)
(0.0710136 0.0490612 0)
(0.0731908 0.0349381 0)
(0.0739269 0.0213687 0)
(0.0731705 0.00817631 0)
(0.0708842 -0.00492049 0)
(0.0668198 -0.0181579 0)
(0.0611677 -0.0318456 0)
(0.0532541 -0.0461876 0)
(0.0441998 -0.0618905 0)
(0.0318163 -0.0811039 0)
(0.023401 -0.112674 0)
(-0.00184328 -0.166647 0)
(0.021809 -0.233233 0)
(0.00990064 0.0601968 0)
(0.0273221 0.0950528 0)
(0.0411929 0.101454 0)
(0.0536964 0.0963489 0)
(0.0650532 0.0856925 0)
(0.0745588 0.0728158 0)
(0.0819598 0.0593657 0)
(0.0873221 0.0461835 0)
(0.0907054 0.0335861 0)
(0.0921902 0.0215669 0)
(0.0917023 0.0100444 0)
(0.0892384 -0.00131811 0)
(0.0844142 -0.0125341 0)
(0.0777019 -0.0240961 0)
(0.0679397 -0.0362926 0)
(0.0569963 -0.050202 0)
(0.0416354 -0.0678635 0)
(0.03117 -0.0999669 0)
(0.000480171 -0.158695 0)
(0.028764 -0.230068 0)
(0.00923949 0.0406097 0)
(0.026586 0.075651 0)
(0.0426034 0.0839845 0)
(0.0580469 0.0809323 0)
(0.0725442 0.0726472 0)
(0.0851717 0.0623518 0)
(0.095213 0.0514357 0)
(0.102638 0.040638 0)
(0.107493 0.0303724 0)
(0.109991 0.0206341 0)
(0.109901 0.0114368 0)
(0.107624 0.00244492 0)
(0.102433 -0.00627091 0)
(0.0952622 -0.0152734 0)
(0.0841134 -0.024743 0)
(0.071999 -0.0363737 0)
(0.053836 -0.0519674 0)
(0.0412171 -0.0845894 0)
(0.00479157 -0.146917 0)
(0.0385103 -0.218568 0)
(-0.000221129 0.0251118 0)
(0.0199831 0.0603428 0)
(0.0380485 0.0681879 0)
(0.0571102 0.0663313 0)
(0.0754833 0.0600549 0)
(0.0915014 0.0521384 0)
(0.104591 0.0436033 0)
(0.114597 0.0350918 0)
(0.121458 0.0270766 0)
(0.125671 0.0195866 0)
(0.126776 0.0127289 0)
(0.125685 0.00622168 0)
(0.121125 0.000153091 0)
(0.115124 -0.00620521 0)
(0.10408 -0.0125925 0)
(0.0928918 -0.0213738 0)
(0.0729091 -0.0341234 0)
(0.0594617 -0.0653887 0)
(0.0185903 -0.126516 0)
(0.0556435 -0.189105 0)
(-0.0132129 0.0289638 0)
(-0.000333725 0.0311768 0)
(0.0261848 0.0345016 0)
(0.052256 0.0354184 0)
(0.0757119 0.0336699 0)
(0.0962176 0.0298801 0)
(0.113234 0.0255081 0)
(0.126977 0.0210635 0)
(0.1371 0.0168447 0)
(0.144429 0.0128392 0)
(0.14834 0.00928668 0)
(0.150158 0.0057122 0)
(0.148402 0.00273685 0)
(0.145407 -0.00110874 0)
(0.137188 -0.00409078 0)
(0.129719 -0.0103366 0)
(0.111467 -0.0186577 0)
(0.10161 -0.0446476 0)
(0.0604635 -0.0908738 0)
(0.0895937 -0.13493 0)
(0.0438303 0.0377679 0)
(0.0492577 0.0299516 0)
(0.0705873 0.0274565 0)
(0.100544 0.027124 0)
(0.127503 0.0261779 0)
(0.15232 0.0241845 0)
(0.174114 0.0216581 0)
(0.193438 0.0191455 0)
(0.209286 0.0167166 0)
(0.22275 0.0145676 0)
(0.232897 0.0125482 0)
(0.241141 0.0108391 0)
(0.246312 0.00899552 0)
(0.250082 0.0074711 0)
(0.250209 0.00530433 0)
(0.248822 0.00306298 0)
(0.23667 0.00219521 0)
(0.224417 -0.00797459 0)
(0.174438 -0.0124452 0)
(0.161983 -0.0575345 0)
)
;

boundaryField
{
    movingWall
    {
        type            fixedValue;
        value           uniform (1 0 0);
    }
    fixedWalls
    {
        type            noSlip;
    }
    frontAndBack
    {
        type            empty;
    }
}


// ************************************************************************* //
